 Gaussian 16, Revision C.01,
 Gaussian 16:  ES64L-G16RevC.01  3-Jul-2019

 ------------------------------------------------------------------
 # SP PBE1PBE/def2svp empiricaldispersion=GD3BJ scrf=(solvent=dmso)
 ------------------------------------------------------------------

 -----------
 trans_l3_lc
 -----------
 Symbolic Z-matrix:
 Charge =  4 Multiplicity = 1

                         Standard orientation:
 ---------------------------------------------------------------------
 Center     Atomic      Atomic             Coordinates (Angstroms)
 Number     Number       Type             X           Y           Z
 ---------------------------------------------------------------------
      1         46           0        7.229902    0.700107    0.302196
      2         46           0       -6.994598    0.631603    0.048596
      3          6           0        3.139002    1.344406    0.394296
      4          6           0        4.469102    1.159706    0.102396
      5          7           0        5.377702    0.895406    1.052196
      6          6           0        4.990402    0.824906    2.334596
      7          6           0        3.666102    0.975406    2.703096
      8          6           0        2.697002    1.227406    1.721896
      9          6           0        1.289302    1.338605    2.039296
     10          6           0        0.666302    1.332705    3.274296
     11          6           0       -0.731698    1.446005    3.177596
     12          6           0       -1.169298    1.559105    1.867996
     13         16           0        0.146302    1.501905    0.761496
     14          6           0       -2.520898    1.650404    1.363496
     15          6           0       -2.804098    1.727604   -0.010604
     16          6           0       -4.115098    1.664904   -0.481604
     17          7           0       -5.158498    1.560504    0.356296
     18          6           0       -4.905898    1.627204    1.682296
     19          6           0       -3.632298    1.683904    2.217596
     20          1           0        2.453502    1.559706   -0.425904
     21          1           0        4.823302    1.222406   -0.930604
     22          1           0        5.759402    0.614506    3.079496
     23          1           0        3.403302    0.880606    3.756696
     24          1           0        1.201202    1.252205    4.220896
     25          1           0       -1.395798    1.453205    4.041696
     26          1           0       -1.999898    1.773005   -0.747404
     27          1           0       -4.329598    1.660004   -1.551504
     28          1           0       -5.774598    1.582904    2.342496
     29          1           0       -3.522698    1.709504    3.301196
     30          6           0        1.820103   -2.310695    0.251096
     31          6           0        3.108503   -2.199494    0.760796
     32          7           0        4.199603   -2.122594    0.002396
     33          6           0        4.032403   -2.168594   -1.322304
     34          6           0        2.783103   -2.278894   -1.936204
     35          6           0        1.624703   -2.353395   -1.138304
     36          6           0        0.267003   -2.446395   -1.693604
     37          6           0       -0.184197   -2.647495   -2.993004
     38          6           0       -1.598797   -2.600395   -3.100804
     39          6           0       -2.198297   -2.374995   -1.874404
     40         16           0       -1.079597   -2.240895   -0.632304
     41          6           0       -3.501498   -2.077196   -1.406304
     42          6           0       -3.657398   -1.963296   -0.015704
     43          6           0       -4.828698   -1.426896    0.501296
     44          7           0       -5.803398   -1.000696   -0.316504
     45          6           0       -5.694198   -1.231696   -1.642204
     46          6           0       -4.584298   -1.785796   -2.227504
     47          1           0        0.979003   -2.372995    0.944996
     48          1           0        3.257203   -2.176594    1.845396
     49          1           0        4.945103   -2.109394   -1.925504
     50          1           0        2.721203   -2.297094   -3.024004
     51          1           0        0.478203   -2.826795   -3.839304
     52          1           0       -2.144397   -2.724595   -4.036004
     53          1           0       -2.863697   -2.249096    0.676396
     54          1           0       -4.964898   -1.275696    1.573596
     55          1           0       -6.527398   -0.900897   -2.266404
     56          1           0       -4.546798   -1.901496   -3.310204
     57          6           0      -10.093699    3.493103   -0.816904
     58          6           0       -9.532399    4.756603   -0.511804
     59          6           0       -8.172799    4.764003   -0.095204
     60          6           0       -7.475599    5.988303    0.104696
     61          6           0       -8.186000    7.168203    0.016996
     62          6           0       -9.560900    7.160603   -0.325304
     63          6           0      -10.222499    5.987703   -0.616704
     64          6           0       -6.013299    5.915204    0.298496
     65          6           0       -5.368000    6.423704    1.430596
     66          6           0       -3.996099    6.263304    1.587996
     67          6           0       -3.235499    5.599304    0.607396
     68          6           0       -1.834999    5.408105    0.769296
     69          6           0       -0.637599    5.230405    0.893496
     70          6           0        0.764501    5.072705    1.086796
     71          6           0        1.279101    5.050805    2.395796
     72          6           0        2.647401    4.917206    2.605496
     73          6           0        3.516001    4.816606    1.524896
     74          6           0        3.017101    4.834506    0.206796
     75          6           0        3.949901    4.728106   -0.867004
     76          6           0        4.848001    4.613706   -1.682604
     77          6           0        6.008201    4.381606   -2.478604
     78          6           0        7.223501    4.990607   -2.116104
     79          6           0        8.421801    4.552407   -2.668004
     80          6           0        8.431601    3.497907   -3.587904
     81          6           0        9.662501    2.677207   -3.733904
     82          6           0        9.817102    1.674507   -2.725604
     83          6           0       10.929602    0.787308   -2.720204
     84          6           0       10.984602   -0.190192   -1.690604
     85          6           0        9.989602   -0.266993   -0.747804
     86          7           0        8.942202    0.599207   -0.769504
     87          6           0        8.862802    1.526507   -1.702604
     88          6           0       11.902402    0.927408   -3.740304
     89          6           0       11.747102    1.901808   -4.701604
     90          6           0       10.630401    2.777108   -4.705604
     91          6           0        7.209001    3.001807   -4.064404
     92          6           0        6.005301    3.439406   -3.523304
     93          6           0        1.638101    4.950705   -0.004104
     94          6           0       -3.881499    5.117304   -0.543504
     95          6           0       -5.250099    5.271904   -0.688804
     96          6           0       -7.531299    3.532603    0.138496
     97          7           0       -8.091799    2.367003   -0.123004
     98          6           0       -9.353499    2.353403   -0.651504
     99          1           0      -11.110699    3.418602   -1.205604
    100          1           0       -7.674000    8.120903    0.167196
    101          1           0      -10.091400    8.112503   -0.397104
    102          1           0      -11.268199    5.994402   -0.930704
    103          1           0       -5.949900    6.923304    2.207896
    104          1           0       -3.501900    6.643704    2.483396
    105          1           0        0.593801    5.139105    3.239696
    106          1           0        3.041901    4.894606    3.623096
    107          1           0        4.590801    4.715606    1.686596
    108          1           0        7.229801    5.755207   -1.337304
    109          1           0        9.366901    4.959507   -2.301904
    110          1           0       11.815202   -0.896492   -1.648204
    111          1           0        9.995802   -1.015293    0.044196
    112          1           0        7.996901    2.199407   -1.666404
    113          1           0       12.766102    0.260408   -3.755504
    114          1           0       12.498102    2.007208   -5.487404
    115          1           0       10.540301    3.531808   -5.489204
    116          1           0        7.206501    2.189307   -4.794704
    117          1           0        5.064301    2.988406   -3.843304
    118          1           0        1.241501    4.961805   -1.020504
    119          1           0       -3.299699    4.616104   -1.318804
    120          1           0       -5.742299    4.886604   -1.585304
    121          1           0       -6.522099    3.532803    0.543996
    122          1           0       -9.753498    1.381603   -0.936504
    123          6           0      -10.756398   -0.961498    1.372696
    124          6           0      -10.773897   -2.296798    0.895896
    125          6           0       -9.613897   -2.748597    0.207296
    126          6           0       -9.468997   -4.122397   -0.159204
    127          6           0      -10.548597   -4.962197    0.024996
    128          6           0      -11.740397   -4.491098    0.625296
    129          6           0      -11.847897   -3.197798    1.088396
    130          6           0       -8.136597   -4.600197   -0.592704
    131          6           0       -7.073497   -4.400997    0.304296
    132          6           0       -5.780597   -4.763596   -0.024204
    133          6           0       -5.503197   -5.336596   -1.276804
    134          6           0       -4.151497   -5.636096   -1.606404
    135          6           0       -2.973797   -5.851496   -1.830604
    136          6           0       -1.593797   -6.069195   -2.105304
    137          6           0       -1.183596   -6.476395   -3.387904
    138          6           0        0.167204   -6.656195   -3.664104
    139          6           0        1.123704   -6.432595   -2.680404
    140          6           0        0.733503   -6.022395   -1.391904
    141          6           0        1.731503   -5.754795   -0.412204
    142          6           0        2.642403   -5.503294    0.355796
    143          6           0        3.747903   -5.129194    1.169196
    144          6           0        5.021103   -4.970594    0.592296
    145          6           0        6.080303   -4.486194    1.345396
    146          6           0        5.903303   -4.165094    2.696196
    147          6           0        7.019203   -3.623793    3.504196
    148          6           0        7.657403   -2.389293    3.167496
    149          6           0        8.728302   -1.904493    3.983296
    150          6           0        9.321602   -0.667793    3.639896
    151          6           0        8.853902    0.041007    2.571796
    152          7           0        7.815702   -0.428593    1.818396
    153          6           0        7.231102   -1.589493    2.079896
    154          6           0        9.147703   -2.644193    5.112096
    155          6           0        8.506303   -3.817193    5.430696
    156          6           0        7.445303   -4.299093    4.632896
    157          6           0        4.651403   -4.380994    3.288796
    158          6           0        3.582503   -4.849994    2.537296
    159          6           0       -0.629297   -5.847195   -1.109104
    160          6           0       -6.568697   -5.565897   -2.169404
    161          6           0       -7.870997   -5.205897   -1.827404
    162          6           0       -8.621998   -1.801497   -0.108904
    163          7           0       -8.643598   -0.553597    0.324196
    164          6           0       -9.681198   -0.150197    1.116696
    165          1           0      -11.588598   -0.577698    1.964896
    166          1           0      -10.463997   -6.017097   -0.245304
    167          1           0      -12.569997   -5.186998    0.766296
    168          1           0      -12.747097   -2.859798    1.606796
    169          1           0       -7.270797   -3.951597    1.280796
    170          1           0       -4.967597   -4.599596    0.684896
    171          1           0       -1.934496   -6.645995   -4.161104
    172          1           0        0.479604   -6.972495   -4.661404
    173          1           0        2.184504   -6.566394   -2.899204
    174          1           0        5.163703   -5.202494   -0.464304
    175          1           0        7.058603   -4.349993    0.878996
    176          1           0       10.143602   -0.266993    4.234796
    177          1           0        9.275902    1.003407    2.282896
    178          1           0        6.380302   -1.865093    1.431096
    179          1           0        9.969703   -2.265493    5.722696
    180          1           0        8.818303   -4.390093    6.306296
    181          1           0        6.958403   -5.238393    4.901896
    182          1           0        4.508503   -4.142894    4.345496
    183          1           0        2.601503   -4.977694    2.998096
    184          1           0       -0.939297   -5.512395   -0.117504
    185          1           0       -6.364397   -6.016096   -3.142304
    186          1           0       -8.684997   -5.372197   -2.536404
    187          1           0       -7.787297   -2.106797   -0.731504
    188          1           0       -9.624698    0.861603    1.517296
 ---------------------------------------------------------------------

 SCF Done:  E(RPBE1PBE) =  -5637.13778135     A.U. after   21 cycles

 The electronic state is 1-A.
 Alpha  occ. eigenvalues --  -89.07214 -89.05963 -14.50613 -14.48993 -14.48947
 Alpha  occ. eigenvalues --  -14.48545 -14.48352 -14.48334 -14.48056 -14.40673
 Alpha  occ. eigenvalues --  -10.33178 -10.32930 -10.32369 -10.32357 -10.32340
 Alpha  occ. eigenvalues --  -10.32151 -10.32131 -10.32074 -10.32007 -10.31899
 Alpha  occ. eigenvalues --  -10.31668 -10.31434 -10.31388 -10.31315 -10.30952
 Alpha  occ. eigenvalues --  -10.30765 -10.30756 -10.30710 -10.30679 -10.29893
 Alpha  occ. eigenvalues --  -10.29517 -10.29463 -10.29406 -10.29176 -10.29062
 Alpha  occ. eigenvalues --  -10.29054 -10.28956 -10.28874 -10.28865 -10.28797
 Alpha  occ. eigenvalues --  -10.28706 -10.28702 -10.28683 -10.28680 -10.28677
 Alpha  occ. eigenvalues --  -10.28675 -10.28594 -10.28556 -10.28513 -10.28461
 Alpha  occ. eigenvalues --  -10.28432 -10.28415 -10.28399 -10.28398 -10.28374
 Alpha  occ. eigenvalues --  -10.28369 -10.28313 -10.28303 -10.28291 -10.28271
 Alpha  occ. eigenvalues --  -10.28266 -10.28076 -10.27862 -10.27828 -10.27776
 Alpha  occ. eigenvalues --  -10.27698 -10.27643 -10.27491 -10.27466 -10.27438
 Alpha  occ. eigenvalues --  -10.27420 -10.27380 -10.27271 -10.27208 -10.27173
 Alpha  occ. eigenvalues --  -10.27171 -10.27074 -10.27051 -10.27039 -10.26989
 Alpha  occ. eigenvalues --  -10.26896 -10.26891 -10.26884 -10.26797 -10.26747
 Alpha  occ. eigenvalues --  -10.26726 -10.26718 -10.26638 -10.26559 -10.26500
 Alpha  occ. eigenvalues --  -10.26491 -10.26471 -10.26449 -10.26437 -10.26424
 Alpha  occ. eigenvalues --  -10.26405 -10.26361 -10.26303 -10.26281 -10.26279
 Alpha  occ. eigenvalues --  -10.26251 -10.26233 -10.26213 -10.26193 -10.26181
 Alpha  occ. eigenvalues --  -10.26176 -10.26092 -10.26035 -10.26010 -10.25993
 Alpha  occ. eigenvalues --  -10.25964 -10.25943 -10.25859 -10.25774 -10.25722
 Alpha  occ. eigenvalues --  -10.25637 -10.25630 -10.25417  -8.07262  -8.06151
 Alpha  occ. eigenvalues --   -6.01393  -6.01008  -6.00725  -6.00284  -5.99872
 Alpha  occ. eigenvalues --   -5.99606  -3.57797  -3.57223  -2.26168  -2.25488
 Alpha  occ. eigenvalues --   -2.25161  -2.24926  -2.21314  -2.20872  -1.04034
 Alpha  occ. eigenvalues --   -1.03519  -1.03488  -1.03383  -1.02710  -1.02544
 Alpha  occ. eigenvalues --   -1.02377  -0.98219  -0.95778  -0.95645  -0.92946
 Alpha  occ. eigenvalues --   -0.92705  -0.92621  -0.92535  -0.91178  -0.90890
 Alpha  occ. eigenvalues --   -0.90679  -0.90396  -0.90345  -0.90293  -0.89672
 Alpha  occ. eigenvalues --   -0.88875  -0.87202  -0.85861  -0.85832  -0.85511
 Alpha  occ. eigenvalues --   -0.85434  -0.85123  -0.83812  -0.83599  -0.83377
 Alpha  occ. eigenvalues --   -0.83268  -0.82986  -0.82861  -0.82789  -0.82652
 Alpha  occ. eigenvalues --   -0.82564  -0.82279  -0.82041  -0.81641  -0.81396
 Alpha  occ. eigenvalues --   -0.80404  -0.80271  -0.79682  -0.79557  -0.78985
 Alpha  occ. eigenvalues --   -0.78783  -0.78749  -0.78683  -0.78670  -0.78634
 Alpha  occ. eigenvalues --   -0.78515  -0.78427  -0.78363  -0.78248  -0.77197
 Alpha  occ. eigenvalues --   -0.75422  -0.75101  -0.74615  -0.74418  -0.71774
 Alpha  occ. eigenvalues --   -0.71267  -0.70838  -0.70791  -0.70761  -0.70403
 Alpha  occ. eigenvalues --   -0.70250  -0.70019  -0.69860  -0.69230  -0.69020
 Alpha  occ. eigenvalues --   -0.68746  -0.68537  -0.68270  -0.68091  -0.67952
 Alpha  occ. eigenvalues --   -0.67883  -0.67573  -0.66682  -0.65821  -0.65714
 Alpha  occ. eigenvalues --   -0.65561  -0.65442  -0.65237  -0.64852  -0.64548
 Alpha  occ. eigenvalues --   -0.64450  -0.64340  -0.63179  -0.62996  -0.62859
 Alpha  occ. eigenvalues --   -0.62748  -0.62008  -0.61639  -0.61468  -0.59856
 Alpha  occ. eigenvalues --   -0.59364  -0.59159  -0.58982  -0.58616  -0.58349
 Alpha  occ. eigenvalues --   -0.58309  -0.58006  -0.57926  -0.57832  -0.57789
 Alpha  occ. eigenvalues --   -0.57620  -0.57513  -0.56961  -0.56816  -0.56728
 Alpha  occ. eigenvalues --   -0.56476  -0.56371  -0.56203  -0.56012  -0.55933
 Alpha  occ. eigenvalues --   -0.55706  -0.55583  -0.55486  -0.54430  -0.53791
 Alpha  occ. eigenvalues --   -0.53606  -0.52670  -0.52055  -0.51946  -0.51813
 Alpha  occ. eigenvalues --   -0.51797  -0.51725  -0.51558  -0.51434  -0.51250
 Alpha  occ. eigenvalues --   -0.51221  -0.51105  -0.50992  -0.50880  -0.50725
 Alpha  occ. eigenvalues --   -0.50693  -0.50661  -0.50612  -0.50504  -0.50332
 Alpha  occ. eigenvalues --   -0.50171  -0.49998  -0.49744  -0.49690  -0.49568
 Alpha  occ. eigenvalues --   -0.49509  -0.49412  -0.49289  -0.49072  -0.48933
 Alpha  occ. eigenvalues --   -0.48777  -0.48696  -0.48598  -0.48556  -0.48467
 Alpha  occ. eigenvalues --   -0.48178  -0.48000  -0.47963  -0.47895  -0.47818
 Alpha  occ. eigenvalues --   -0.47545  -0.47396  -0.47020  -0.46871  -0.46822
 Alpha  occ. eigenvalues --   -0.46572  -0.46475  -0.46415  -0.46164  -0.46083
 Alpha  occ. eigenvalues --   -0.45800  -0.45766  -0.45721  -0.45687  -0.45559
 Alpha  occ. eigenvalues --   -0.45463  -0.45350  -0.45263  -0.45108  -0.44824
 Alpha  occ. eigenvalues --   -0.44701  -0.44416  -0.44338  -0.44288  -0.43931
 Alpha  occ. eigenvalues --   -0.43823  -0.43669  -0.43405  -0.43185  -0.43049
 Alpha  occ. eigenvalues --   -0.42896  -0.42812  -0.42712  -0.42516  -0.42396
 Alpha  occ. eigenvalues --   -0.42209  -0.41983  -0.41911  -0.41732  -0.41609
 Alpha  occ. eigenvalues --   -0.41591  -0.41533  -0.41479  -0.41378  -0.41254
 Alpha  occ. eigenvalues --   -0.41014  -0.40838  -0.40607  -0.40349  -0.40077
 Alpha  occ. eigenvalues --   -0.39836  -0.39809  -0.39586  -0.39433  -0.39334
 Alpha  occ. eigenvalues --   -0.39223  -0.39010  -0.38809  -0.38526  -0.38438
 Alpha  occ. eigenvalues --   -0.38247  -0.38155  -0.38053  -0.37945  -0.37849
 Alpha  occ. eigenvalues --   -0.37745  -0.37700  -0.37653  -0.37297  -0.37060
 Alpha  occ. eigenvalues --   -0.36949  -0.36692  -0.36527  -0.36382  -0.36113
 Alpha  occ. eigenvalues --   -0.35631  -0.35337  -0.35030  -0.34824  -0.34555
 Alpha  occ. eigenvalues --   -0.34435  -0.34203  -0.34038  -0.33918  -0.33398
 Alpha  occ. eigenvalues --   -0.33155  -0.32922  -0.32738  -0.32520  -0.32367
 Alpha  occ. eigenvalues --   -0.32137  -0.32042  -0.31555  -0.31391  -0.31211
 Alpha  occ. eigenvalues --   -0.31019  -0.30647  -0.30547  -0.30402  -0.30244
 Alpha  occ. eigenvalues --   -0.30196  -0.29942  -0.29856  -0.29697  -0.29437
 Alpha  occ. eigenvalues --   -0.29400  -0.29248  -0.29172  -0.29101  -0.29060
 Alpha  occ. eigenvalues --   -0.28695  -0.28585  -0.27903  -0.27432  -0.27426
 Alpha  occ. eigenvalues --   -0.27156  -0.27026  -0.26446  -0.25689  -0.25502
 Alpha  occ. eigenvalues --   -0.24357  -0.24275  -0.23834
 Alpha virt. eigenvalues --   -0.13311  -0.12102  -0.11400  -0.09856  -0.09710
 Alpha virt. eigenvalues --   -0.09465  -0.09389  -0.09217  -0.07573  -0.07440
 Alpha virt. eigenvalues --   -0.07080  -0.06800  -0.06714  -0.06630  -0.06504

 Mulliken charges:
               1
     1  Pd   0.698417
     2  Pd   0.528853
     3  C   -0.057165
     4  C    0.168748
     5  N   -0.336893
     6  C    0.152611
     7  C   -0.061434
     8  C    0.116357
     9  C   -0.083406
    10  C    0.006118
    11  C    0.001144
    12  C   -0.081633
    13  S    0.143720
    14  C    0.114414
    15  C   -0.066801
    16  C    0.136628
    17  N   -0.353550
    18  C    0.121889
    19  C   -0.036861
    20  H    0.076954
    21  H    0.108839
    22  H    0.105263
    23  H    0.068988
    24  H    0.060678
    25  H    0.061166
    26  H    0.076818
    27  H    0.110647
    28  H    0.119798
    29  H    0.067700
    30  C   -0.093197
    31  C    0.094926
    32  N   -0.204126
    33  C    0.055915
    34  C   -0.071691
    35  C    0.100863
    36  C   -0.061872
    37  C   -0.010593
    38  C    0.018140
    39  C   -0.048510
    40  S    0.058456
    41  C    0.076903
    42  C   -0.073014
    43  C    0.142977
    44  N   -0.360678
    45  C    0.124291
    46  C   -0.012629
    47  H    0.051238
    48  H    0.049886
    49  H    0.058276
    50  H    0.043916
    51  H    0.051313
    52  H    0.055057
    53  H    0.104831
    54  H    0.109300
    55  H    0.116681
    56  H    0.066051
    57  C   -0.028293
    58  C    0.044201
    59  C   -0.057404
    60  C    0.055388
    61  C   -0.016363
    62  C   -0.000244
    63  C   -0.004236
    64  C   -0.083781
    65  C    0.008943
    66  C    0.005686
    67  C   -0.077961
    68  C   -0.018106
    69  C   -0.000237
    70  C   -0.075949
    71  C    0.014508
    72  C   -0.020569
    73  C    0.002509
    74  C   -0.082494
    75  C    0.020722
    76  C   -0.032297
    77  C   -0.085297
    78  C    0.003069
    79  C    0.010633
    80  C   -0.137826
    81  C    0.029625
    82  C   -0.022626
    83  C    0.049463
    84  C   -0.038129
    85  C    0.136854
    86  N   -0.339143
    87  C    0.184943
    88  C   -0.002810
    89  C    0.003168
    90  C   -0.022338
    91  C    0.011773
    92  C    0.009168
    93  C    0.020765
    94  C    0.013747
    95  C   -0.045666
    96  C    0.171251
    97  N   -0.325767
    98  C    0.104151
    99  H    0.059661
   100  H    0.044622
   101  H    0.060745
   102  H    0.046580
   103  H    0.040613
   104  H    0.040272
   105  H    0.040263
   106  H    0.050341
   107  H    0.044494
   108  H    0.046154
   109  H    0.049692
   110  H    0.064747
   111  H    0.096441
   112  H    0.132191
   113  H    0.048861
   114  H    0.063079
   115  H    0.046478
   116  H    0.048436
   117  H    0.045225
   118  H    0.033925
   119  H    0.040346
   120  H    0.055285
   121  H    0.112694
   122  H    0.112461
   123  C   -0.027024
   124  C    0.043358
   125  C   -0.055496
   126  C    0.050185
   127  C   -0.010425
   128  C    0.000687
   129  C   -0.005542
   130  C   -0.085036
   131  C   -0.035200
   132  C    0.001278
   133  C   -0.074025
   134  C   -0.022215
   135  C    0.006724
   136  C   -0.074103
   137  C    0.008505
   138  C   -0.023703
   139  C    0.005803
   140  C   -0.075587
   141  C    0.001892
   142  C   -0.012055
   143  C   -0.091755
   144  C    0.027369
   145  C   -0.008688
   146  C   -0.063200
   147  C    0.028835
   148  C   -0.008501
   149  C    0.033776
   150  C   -0.025486
   151  C    0.133589
   152  N   -0.359401
   153  C    0.137404
   154  C   -0.003373
   155  C    0.008382
   156  C   -0.016795
   157  C   -0.001696
   158  C   -0.005160
   159  C    0.023180
   160  C    0.004194
   161  C    0.008752
   162  C    0.185098
   163  N   -0.326621
   164  C    0.103465
   165  H    0.060545
   166  H    0.045674
   167  H    0.060915
   168  H    0.046782
   169  H    0.054142
   170  H    0.043354
   171  H    0.039267
   172  H    0.050123
   173  H    0.038833
   174  H    0.035343
   175  H    0.042807
   176  H    0.067629
   177  H    0.115942
   178  H    0.132876
   179  H    0.049905
   180  H    0.062475
   181  H    0.048520
   182  H    0.039602
   183  H    0.037396
   184  H    0.031527
   185  H    0.040170
   186  H    0.040320
   187  H    0.084682
   188  H    0.112427
 Sum of Mulliken charges =   4.00000

 Dipole moment (field-independent basis, Debye):
    X=              6.4380    Y=              6.3893    Z=              5.4266  Tot=             10.5697
 Quadrupole moment (field-independent basis, Debye-Ang):
   XX=            448.8412   YY=           -579.6094   ZZ=           -542.0975
   XY=            -23.1145   XZ=             11.4357   YZ=              7.0670

 Normal termination of Gaussian 16 at Sat Jun  3 03:59:05 2023.
