 Gaussian 16, Revision C.01,
 Gaussian 16:  ES64L-G16RevC.01  3-Jul-2019

 ------------------------------------------------------------------
 # SP PBE1PBE/def2svp empiricaldispersion=GD3BJ scrf=(solvent=dmso)
 ------------------------------------------------------------------

 ---------
 cis_l1_la
 ---------
 Symbolic Z-matrix:
 Charge =  4 Multiplicity = 1

                         Standard orientation:
 ---------------------------------------------------------------------
 Center     Atomic      Atomic             Coordinates (Angstroms)
 Number     Number       Type             X           Y           Z
 ---------------------------------------------------------------------
      1         46           0       -7.342196   -2.737703    0.265001
      2         46           0        7.341704   -2.738299   -0.264099
      3          6           0       -6.141096   -4.453002    2.315801
      4          7           0       -5.978796   -3.292402    1.663701
      5          6           0       -4.862097   -2.578502    1.869501
      6          6           0       -3.853996   -3.018402    2.710201
      7          6           0       -3.981996   -4.247502    3.375301
      8          6           0       -2.898296   -4.799002    4.209501
      9          6           0       -3.198296   -5.607502    5.328301
     10          6           0       -2.203796   -6.204901    6.094601
     11          6           0       -0.891696   -5.982601    5.699701
     12          8           0        0.213704   -6.518401    6.282101
     13          6           0        1.285404   -6.081501    5.566801
     14          6           0        2.608904   -6.431100    5.796501
     15          6           0        3.557204   -5.902200    4.926901
     16          6           0        3.199204   -5.030700    3.876101
     17          6           0        4.228504   -4.489900    2.968801
     18          6           0        4.184304   -3.156200    2.537701
     19          6           0        5.135104   -2.688800    1.648001
     20          7           0        6.103504   -3.480799    1.162701
     21          6           0        6.178904   -4.753599    1.575201
     22          6           0        5.273704   -5.285600    2.479501
     23          6           0        1.857204   -4.687000    3.673901
     24          6           0        0.891104   -5.230501    4.517701
     25          6           0       -0.553596   -5.171101    4.600801
     26          6           0       -1.563196   -4.567201    3.854701
     27          6           0       -5.176796   -4.954102    3.173001
     28          1           0       -7.062696   -5.005703    2.125401
     29          1           0       -4.775097   -1.629002    1.337901
     30          1           0       -2.971897   -2.391602    2.844501
     31          1           0       -4.240796   -5.760602    5.613801
     32          1           0       -2.440795   -6.826402    6.958701
     33          1           0        2.888405   -7.092300    6.617501
     34          1           0        4.609704   -6.150300    5.079501
     35          1           0        3.420003   -2.470600    2.905401
     36          1           0        5.126803   -1.650400    1.309701
     37          1           0        6.977804   -5.364499    1.150101
     38          1           0        5.365304   -6.334200    2.765401
     39          1           0        1.568104   -4.036401    2.846001
     40          1           0       -1.314496   -3.963401    2.980201
     41          1           0       -5.348696   -5.921702    3.645401
     42          6           0       -5.133396   -2.690502   -1.644599
     43          7           0       -6.103296   -3.481402   -1.160599
     44          6           0       -6.179996   -4.754002   -1.573699
     45          6           0       -5.274796   -5.286602   -2.477699
     46          6           0       -4.228396   -4.492002   -2.966099
     47          6           0       -3.199396   -5.033402   -3.873299
     48          6           0       -3.557596   -5.904902   -4.923999
     49          6           0       -2.609496   -6.434102   -5.793599
     50          6           0       -1.285896   -6.084901   -5.563899
     51          8           0       -0.214296   -6.522001   -6.279299
     52          6           0        0.891204   -5.986201   -5.697099
     53          6           0        2.203304   -6.208500   -6.092099
     54          6           0        3.197804   -5.610900   -5.325999
     55          6           0        2.898004   -4.802200   -4.207299
     56          6           0        3.981704   -4.250200   -3.373399
     57          6           0        3.853204   -3.021100   -2.708499
     58          6           0        4.861203   -2.580700   -1.867799
     59          7           0        5.978104   -3.294099   -1.662099
     60          6           0        6.140904   -4.454699   -2.314099
     61          6           0        5.176704   -4.956300   -3.171199
     62          6           0        1.562904   -4.570501   -3.852399
     63          6           0        0.553304   -5.174601   -4.598299
     64          6           0       -0.891396   -5.233801   -4.514999
     65          6           0       -1.857196   -4.690001   -3.671199
     66          6           0       -4.182796   -3.158602   -2.534199
     67          1           0       -5.123897   -1.652302   -1.305699
     68          1           0       -6.979796   -5.364103   -1.149499
     69          1           0       -5.367496   -6.334902   -2.764099
     70          1           0       -4.610096   -6.152702   -5.076599
     71          1           0       -2.889295   -7.095402   -6.614399
     72          1           0        2.440305   -6.830200   -6.956099
     73          1           0        4.240304   -5.763900   -5.611599
     74          1           0        2.970803   -2.394700   -2.842699
     75          1           0        4.773903   -1.631300   -1.336299
     76          1           0        7.062804   -5.006999   -2.123699
     77          1           0        5.349004   -5.923800   -3.643499
     78          1           0        1.314304   -3.966501   -2.977999
     79          1           0       -1.567796   -4.039501   -2.843399
     80          1           0       -3.417497   -2.473702   -2.900999
     81          6           0      -10.687096   -2.784403   -2.353899
     82          6           0       -9.657996   -3.135003   -1.522599
     83          7           0       -8.727997   -2.224003   -1.122199
     84          6           0       -8.780997   -0.980703   -1.561999
     85          6           0       -9.781197   -0.524503   -2.446499
     86          6           0       -9.833297    0.830097   -2.905599
     87          6           0       -8.760498    1.797597   -2.590399
     88          6           0       -7.415497    1.497997   -2.861799
     89          6           0       -6.414398    2.424998   -2.609799
     90          6           0       -6.729398    3.691797   -2.083999
     91          6           0       -5.702598    4.656098   -1.883699
     92          6           0       -4.807298    5.476398   -1.776499
     93          6           0       -3.760299    6.439098   -1.706899
     94          6           0       -2.419799    6.020698   -1.715399
     95          6           0       -1.417899    6.987199   -1.687599
     96          6           0        0.032601    6.970899   -1.683999
     97          6           0        1.014701    5.982599   -1.712099
     98          6           0        2.363401    6.374000   -1.695599
     99          6           0        3.412302    5.410200   -1.749699
    100          6           0        4.353602    4.639600   -1.834999
    101          6           0        5.494002    3.805100   -2.015699
    102          6           0        6.768902    4.257701   -1.626999
    103          6           0        7.900902    3.505001   -1.907299
    104          6           0        7.803702    2.274901   -2.575899
    105          6           0        9.028503    1.554201   -2.990599
    106          6           0       10.016802    2.231901   -3.682799
    107          6           0       11.170403    1.575602   -4.163599
    108          6           0       11.353303    0.227002   -3.963599
    109          6           0       10.389803   -0.505598   -3.232099
    110          6           0       10.533003   -1.887098   -2.950299
    111          6           0        9.606803   -2.530099   -2.174399
    112          7           0        8.540003   -1.867299   -1.649799
    113          6           0        8.352003   -0.587599   -1.919299
    114          6           0        9.230803    0.161401   -2.728799
    115          6           0        6.526702    1.802701   -2.922099
    116          6           0        5.389502    2.551700   -2.647099
    117          6           0        2.705501    7.747500   -1.648099
    118          6           0        1.736001    8.741099   -1.621699
    119          6           0        0.412401    8.326099   -1.641399
    120          8           0       -0.671399    9.148699   -1.619599
    121          6           0       -1.771199    8.349399   -1.650099
    122          6           0       -3.086499    8.792198   -1.638499
    123          6           0       -4.076499    7.818898   -1.663599
    124          6           0       -8.075498    3.991197   -1.805299
    125          6           0       -9.071498    3.057197   -2.056899
    126          6           0      -10.918397    1.215096   -3.672099
    127          6           0      -11.928897    0.298996   -4.036599
    128          6           0      -11.868297   -1.017704   -3.641899
    129          6           0      -10.795597   -1.453904   -2.829899
    130          1           0      -11.431296   -3.530204   -2.637299
    131          1           0       -9.551996   -4.147103   -1.129699
    132          1           0       -8.018297   -0.293903   -1.191599
    133          1           0       -7.151397    0.536797   -3.309199
    134          1           0       -5.375498    2.183898   -2.842199
    135          1           0       -2.179498    4.956899   -1.742199
    136          1           0        0.751402    4.924099   -1.743499
    137          1           0        6.861402    5.216401   -1.113999
    138          1           0        8.882402    3.876701   -1.604799
    139          1           0        9.883502    3.295101   -3.893299
    140          1           0       11.915202    2.151002   -4.717599
    141          1           0       12.235403   -0.286398   -4.350899
    142          1           0       11.391903   -2.438398   -3.335699
    143          1           0        9.694404   -3.588499   -1.925599
    144          1           0        7.487103   -0.105099   -1.459599
    145          1           0        6.423403    0.858701   -3.462599
    146          1           0        4.408802    2.185000   -2.955599
    147          1           0        3.760501    8.024000   -1.627799
    148          1           0        1.998501    9.798700   -1.577599
    149          1           0       -3.326299    9.855498   -1.602499
    150          1           0       -5.126299    8.116998   -1.655299
    151          1           0       -8.334498    4.967397   -1.391299
    152          1           0      -10.110998    3.302597   -1.827799
    153          1           0      -10.977298    2.244496   -4.031899
    154          1           0      -12.759197    0.644596   -4.656099
    155          1           0      -12.639697   -1.731004   -3.938299
    156          6           0      -10.534597   -1.884703    2.949301
    157          6           0       -9.608197   -2.528303    2.174001
    158          7           0       -8.541097   -1.865903    1.649601
    159          6           0       -8.352997   -0.586103    1.918601
    160          6           0       -9.231997    0.163397    2.727401
    161          6           0       -9.029597    1.556297    2.988701
    162          6           0       -7.804398    2.276497    2.574301
    163          6           0       -7.900998    3.506297    1.905101
    164          6           0       -6.768698    4.258697    1.625001
    165          6           0       -5.494098    3.805898    2.014601
    166          6           0       -4.353398    4.640198    1.834101
    167          6           0       -3.412098    5.410698    1.749001
    168          6           0       -2.363199    6.374399    1.695001
    169          6           0       -1.014399    5.983099    1.711401
    170          6           0       -0.032299    6.971399    1.683401
    171          6           0        1.418101    6.987799    1.687001
    172          6           0        2.420101    6.021300    1.714701
    173          6           0        3.760601    6.439800    1.706201
    174          6           0        4.807702    5.477200    1.775701
    175          6           0        5.703102    4.657000    1.882601
    176          6           0        6.730202    3.693001    2.082501
    177          6           0        6.415702    2.426201    2.609001
    178          6           0        7.417103    1.499501    2.860501
    179          6           0        8.761902    1.799201    2.587901
    180          6           0        9.835003    0.831801    2.902701
    181          6           0       10.920903    1.217202    3.668101
    182          6           0       11.931603    0.301302    4.032201
    183          6           0       11.870603   -1.015598    3.638301
    184          6           0       10.797203   -1.452298    2.827501
    185          6           0       10.688204   -2.783098    2.352501
    186          6           0        9.658304   -3.134099    1.522401
    187          7           0        8.728203   -2.223399    1.122101
    188          6           0        8.781603   -0.979699    1.561001
    189          6           0        9.782603   -0.523099    2.444401
    190          6           0        9.072402    3.058601    2.053901
    191          6           0        8.076102    3.992501    1.802901
    192          6           0        4.076701    7.819700    1.663101
    193          6           0        3.086701    8.792900    1.638101
    194          6           0        1.771501    8.349999    1.649701
    195          8           0        0.671601    9.149199    1.619201
    196          6           0       -0.412199    8.326599    1.641001
    197          6           0       -1.735799    8.741599    1.621401
    198          6           0       -2.705299    7.747998    1.647701
    199          6           0       -5.390198    2.552898    2.646601
    200          6           0       -6.527698    1.804198    2.921301
    201          6           0      -10.017898    2.234397    3.680301
    202          6           0      -11.171897    1.578496    4.160901
    203          6           0      -11.354897    0.229796    3.961401
    204          6           0      -10.391297   -0.503203    3.230601
    205          1           0      -11.393797   -2.435804    3.334601
    206          1           0       -9.695896   -3.586803    1.925601
    207          1           0       -7.487897   -0.103903    1.459001
    208          1           0       -8.882298    3.878197    1.601901
    209          1           0       -6.860698    5.217097    1.111601
    210          1           0       -0.751098    4.924599    1.742701
    211          1           0        2.179902    4.957600    1.741401
    212          1           0        5.377102    2.185100    2.842201
    213          1           0        7.153503    0.538301    3.308301
    214          1           0       10.980102    2.246802    4.027201
    215          1           0       12.762503    0.647302    4.650701
    216          1           0       12.642303   -1.728798    3.934501
    217          1           0       11.432504   -3.528798    2.635901
    218          1           0        9.551804   -4.146599    1.130401
    219          1           0        8.018703   -0.292999    1.190601
    220          1           0       10.111702    3.304101    1.824001
    221          1           0        8.334702    4.968501    1.388401
    222          1           0        5.126501    8.117800    1.654701
    223          1           0        3.326401    9.856200    1.602201
    224          1           0       -1.998299    9.799199    1.577501
    225          1           0       -3.760299    8.024398    1.627501
    226          1           0       -4.409698    2.185998    2.955701
    227          1           0       -6.424797    0.860398    3.462301
    228          1           0       -9.884598    3.297697    3.890401
    229          1           0      -11.916798    2.154296    4.714401
    230          1           0      -12.237297   -0.283204    4.348601
 ---------------------------------------------------------------------

 SCF Done:  E(RPBE1PBE) =  -6214.12614205     A.U. after   18 cycles

 The electronic state is 1-A.
 Alpha  occ. eigenvalues --  -19.30192 -19.30192 -19.29603 -19.29601 -14.48175
 Alpha  occ. eigenvalues --  -14.48175 -14.48160 -14.48160 -14.48143 -14.48143
 Alpha  occ. eigenvalues --  -14.48083 -14.48083 -10.32262 -10.32262 -10.32214
 Alpha  occ. eigenvalues --  -10.32213 -10.32175 -10.32174 -10.32142 -10.32140
 Alpha  occ. eigenvalues --  -10.31721 -10.31721 -10.31700 -10.31700 -10.31687
 Alpha  occ. eigenvalues --  -10.31686 -10.31610 -10.31609 -10.31527 -10.31527
 Alpha  occ. eigenvalues --  -10.31515 -10.31512 -10.30827 -10.30826 -10.30792
 Alpha  occ. eigenvalues --  -10.30791 -10.30109 -10.30108 -10.30081 -10.30080
 Alpha  occ. eigenvalues --  -10.28950 -10.28949 -10.28941 -10.28940 -10.28808
 Alpha  occ. eigenvalues --  -10.28808 -10.28785 -10.28785 -10.28461 -10.28460
 Alpha  occ. eigenvalues --  -10.28416 -10.28414 -10.28234 -10.28233 -10.28228
 Alpha  occ. eigenvalues --  -10.28228 -10.28006 -10.28005 -10.27990 -10.27990
 Alpha  occ. eigenvalues --  -10.27970 -10.27969 -10.27910 -10.27910 -10.27878
 Alpha  occ. eigenvalues --  -10.27878 -10.27828 -10.27827 -10.27744 -10.27743
 Alpha  occ. eigenvalues --  -10.27739 -10.27738 -10.27660 -10.27660 -10.27605
 Alpha  occ. eigenvalues --  -10.27604 -10.27357 -10.27357 -10.27323 -10.27322
 Alpha  occ. eigenvalues --  -10.27317 -10.27316 -10.27257 -10.27256 -10.27203
 Alpha  occ. eigenvalues --  -10.27202 -10.27176 -10.27175 -10.27037 -10.27035
 Alpha  occ. eigenvalues --  -10.27035 -10.27034 -10.26972 -10.26972 -10.26953
 Alpha  occ. eigenvalues --  -10.26952 -10.26781 -10.26781 -10.26781 -10.26780
 Alpha  occ. eigenvalues --  -10.26683 -10.26682 -10.26674 -10.26674 -10.26672
 Alpha  occ. eigenvalues --  -10.26672 -10.26666 -10.26666 -10.26621 -10.26621
 Alpha  occ. eigenvalues --  -10.26615 -10.26607 -10.26565 -10.26561 -10.26513
 Alpha  occ. eigenvalues --  -10.26513 -10.26344 -10.26343 -10.26280 -10.26279
 Alpha  occ. eigenvalues --  -10.26267 -10.26267 -10.26253 -10.26253 -10.26217
 Alpha  occ. eigenvalues --  -10.26216 -10.26203 -10.26203 -10.26176 -10.26176
 Alpha  occ. eigenvalues --  -10.26101 -10.26100 -10.26055 -10.26055 -10.26035
 Alpha  occ. eigenvalues --  -10.26035 -10.26011 -10.26010 -10.25994 -10.25994
 Alpha  occ. eigenvalues --  -10.25552 -10.25552 -10.25529 -10.25527 -10.25243
 Alpha  occ. eigenvalues --  -10.25242 -10.25216 -10.25216  -3.56676  -3.56676
 Alpha  occ. eigenvalues --   -2.24586  -2.24585  -2.24413  -2.24412  -2.20382
 Alpha  occ. eigenvalues --   -2.20382  -1.16402  -1.16402  -1.15798  -1.15655
 Alpha  occ. eigenvalues --   -1.03124  -1.03123  -1.02584  -1.02584  -1.02461
 Alpha  occ. eigenvalues --   -1.02458  -1.02353  -1.02353  -0.92380  -0.92379
 Alpha  occ. eigenvalues --   -0.92316  -0.92315  -0.91985  -0.91971  -0.91508
 Alpha  occ. eigenvalues --   -0.91489  -0.91067  -0.90634  -0.90465  -0.90231
 Alpha  occ. eigenvalues --   -0.90183  -0.90174  -0.90107  -0.89984  -0.87632
 Alpha  occ. eigenvalues --   -0.87545  -0.87253  -0.87166  -0.85371  -0.85359
 Alpha  occ. eigenvalues --   -0.85269  -0.85259  -0.83652  -0.83459  -0.82984
 Alpha  occ. eigenvalues --   -0.82958  -0.82927  -0.82806  -0.82551  -0.82483
 Alpha  occ. eigenvalues --   -0.82465  -0.82383  -0.82361  -0.82303  -0.82286
 Alpha  occ. eigenvalues --   -0.82172  -0.81932  -0.81767  -0.81520  -0.81352
 Alpha  occ. eigenvalues --   -0.80531  -0.80488  -0.80151  -0.79877  -0.78677
 Alpha  occ. eigenvalues --   -0.78607  -0.78540  -0.78490  -0.78383  -0.78357
 Alpha  occ. eigenvalues --   -0.78336  -0.78280  -0.77960  -0.77846  -0.77125
 Alpha  occ. eigenvalues --   -0.77112  -0.76677  -0.76612  -0.74835  -0.74789
 Alpha  occ. eigenvalues --   -0.74359  -0.74290  -0.70990  -0.70886  -0.70872
 Alpha  occ. eigenvalues --   -0.70757  -0.70544  -0.70521  -0.70337  -0.70297
 Alpha  occ. eigenvalues --   -0.69803  -0.69514  -0.69377  -0.69269  -0.69217
 Alpha  occ. eigenvalues --   -0.69170  -0.69107  -0.69055  -0.68542  -0.68411
 Alpha  occ. eigenvalues --   -0.68230  -0.68168  -0.67267  -0.67211  -0.67190
 Alpha  occ. eigenvalues --   -0.67146  -0.66345  -0.66323  -0.64504  -0.64414
 Alpha  occ. eigenvalues --   -0.64369  -0.64335  -0.64234  -0.64203  -0.63823
 Alpha  occ. eigenvalues --   -0.63736  -0.63225  -0.63169  -0.62852  -0.62701
 Alpha  occ. eigenvalues --   -0.62693  -0.62550  -0.62535  -0.62499  -0.61956
 Alpha  occ. eigenvalues --   -0.61804  -0.59816  -0.59309  -0.59048  -0.58576
 Alpha  occ. eigenvalues --   -0.58439  -0.58420  -0.58065  -0.57977  -0.57911
 Alpha  occ. eigenvalues --   -0.57796  -0.57576  -0.57484  -0.57393  -0.57385
 Alpha  occ. eigenvalues --   -0.57182  -0.57085  -0.57027  -0.56972  -0.56602
 Alpha  occ. eigenvalues --   -0.56526  -0.56332  -0.56295  -0.56059  -0.55924
 Alpha  occ. eigenvalues --   -0.55654  -0.55652  -0.55555  -0.55548  -0.54883
 Alpha  occ. eigenvalues --   -0.54777  -0.54332  -0.54288  -0.53876  -0.53772
 Alpha  occ. eigenvalues --   -0.52981  -0.52909  -0.52774  -0.52770  -0.51799
 Alpha  occ. eigenvalues --   -0.51565  -0.51493  -0.51451  -0.51286  -0.51227
 Alpha  occ. eigenvalues --   -0.51202  -0.51184  -0.51141  -0.50909  -0.50863
 Alpha  occ. eigenvalues --   -0.50616  -0.50612  -0.50459  -0.50385  -0.50330
 Alpha  occ. eigenvalues --   -0.50293  -0.50095  -0.49910  -0.49850  -0.49798
 Alpha  occ. eigenvalues --   -0.49743  -0.49669  -0.49469  -0.49078  -0.49007
 Alpha  occ. eigenvalues --   -0.48930  -0.48834  -0.48685  -0.48624  -0.48537
 Alpha  occ. eigenvalues --   -0.48417  -0.48272  -0.48256  -0.48119  -0.48083
 Alpha  occ. eigenvalues --   -0.48009  -0.47865  -0.47730  -0.47706  -0.47675
 Alpha  occ. eigenvalues --   -0.47538  -0.47529  -0.47523  -0.47522  -0.47415
 Alpha  occ. eigenvalues --   -0.47366  -0.47206  -0.47051  -0.46892  -0.46786
 Alpha  occ. eigenvalues --   -0.46708  -0.46706  -0.46537  -0.46444  -0.46360
 Alpha  occ. eigenvalues --   -0.46356  -0.46330  -0.46059  -0.46003  -0.45866
 Alpha  occ. eigenvalues --   -0.45795  -0.45519  -0.45487  -0.45464  -0.45394
 Alpha  occ. eigenvalues --   -0.45128  -0.45126  -0.44633  -0.44601  -0.44598
 Alpha  occ. eigenvalues --   -0.44569  -0.44312  -0.44078  -0.43421  -0.43398
 Alpha  occ. eigenvalues --   -0.43333  -0.43306  -0.42962  -0.42773  -0.42572
 Alpha  occ. eigenvalues --   -0.42519  -0.42409  -0.42258  -0.42248  -0.42226
 Alpha  occ. eigenvalues --   -0.42220  -0.42087  -0.41969  -0.41906  -0.41825
 Alpha  occ. eigenvalues --   -0.41683  -0.41657  -0.41562  -0.41494  -0.41423
 Alpha  occ. eigenvalues --   -0.41247  -0.41201  -0.41167  -0.41079  -0.41070
 Alpha  occ. eigenvalues --   -0.40984  -0.40935  -0.40733  -0.40490  -0.40475
 Alpha  occ. eigenvalues --   -0.40323  -0.40121  -0.39802  -0.39765  -0.39674
 Alpha  occ. eigenvalues --   -0.39625  -0.39591  -0.39144  -0.38652  -0.38617
 Alpha  occ. eigenvalues --   -0.38498  -0.38467  -0.38036  -0.38012  -0.37916
 Alpha  occ. eigenvalues --   -0.37892  -0.37780  -0.37773  -0.37596  -0.37577
 Alpha  occ. eigenvalues --   -0.37446  -0.37331  -0.37237  -0.37033  -0.36959
 Alpha  occ. eigenvalues --   -0.36894  -0.36290  -0.36183  -0.35944  -0.35875
 Alpha  occ. eigenvalues --   -0.35710  -0.35687  -0.35014  -0.35004  -0.34829
 Alpha  occ. eigenvalues --   -0.34809  -0.34513  -0.34483  -0.33799  -0.33795
 Alpha  occ. eigenvalues --   -0.33696  -0.33606  -0.33353  -0.33230  -0.33201
 Alpha  occ. eigenvalues --   -0.33180  -0.32741  -0.32268  -0.32144  -0.31958
 Alpha  occ. eigenvalues --   -0.31886  -0.31738  -0.31662  -0.31354  -0.31350
 Alpha  occ. eigenvalues --   -0.30970  -0.30912  -0.30839  -0.30657  -0.30631
 Alpha  occ. eigenvalues --   -0.30486  -0.29986  -0.29589  -0.29572  -0.29441
 Alpha  occ. eigenvalues --   -0.29259  -0.29228  -0.29050  -0.28955  -0.28649
 Alpha  occ. eigenvalues --   -0.28635  -0.28514  -0.28508  -0.28388  -0.27601
 Alpha  occ. eigenvalues --   -0.27041  -0.26682  -0.26299  -0.26174  -0.26142
 Alpha  occ. eigenvalues --   -0.26106  -0.26080  -0.26029  -0.25980  -0.23844
 Alpha  occ. eigenvalues --   -0.23678  -0.23469  -0.22904
 Alpha virt. eigenvalues --   -0.09607  -0.09566  -0.09085  -0.09007  -0.08681
 Alpha virt. eigenvalues --   -0.08408  -0.08139  -0.07959  -0.07352  -0.07242
 Alpha virt. eigenvalues --   -0.06775  -0.06634  -0.06449  -0.06384  -0.06311

 Mulliken charges:
               1
     1  Pd   0.505285
     2  Pd   0.505276
     3  C    0.153582
     4  N   -0.318661
     5  C    0.151648
     6  C   -0.053577
     7  C    0.060371
     8  C    0.023211
     9  C   -0.036601
    10  C   -0.070990
    11  C    0.204000
    12  O   -0.263248
    13  C    0.203349
    14  C   -0.073147
    15  C   -0.025150
    16  C    0.007299
    17  C    0.046066
    18  C   -0.042520
    19  C    0.145026
    20  N   -0.319813
    21  C    0.151511
    22  C   -0.038288
    23  C   -0.042260
    24  C    0.017788
    25  C    0.017180
    26  C   -0.047013
    27  C   -0.049858
    28  H    0.104337
    29  H    0.094048
    30  H    0.065292
    31  H    0.052955
    32  H    0.047845
    33  H    0.047986
    34  H    0.051888
    35  H    0.064946
    36  H    0.102722
    37  H    0.101842
    38  H    0.065756
    39  H    0.039714
    40  H    0.039312
    41  H    0.065477
    42  C    0.145068
    43  N   -0.319812
    44  C    0.151631
    45  C   -0.038399
    46  C    0.046256
    47  C    0.007448
    48  C   -0.025184
    49  C   -0.073150
    50  C    0.203385
    51  O   -0.263278
    52  C    0.204034
    53  C   -0.071001
    54  C   -0.036609
    55  C    0.023211
    56  C    0.060458
    57  C   -0.053620
    58  C    0.151726
    59  N   -0.318631
    60  C    0.153525
    61  C   -0.049831
    62  C   -0.047068
    63  C    0.017182
    64  C    0.017881
    65  C   -0.042358
    66  C   -0.042620
    67  H    0.102674
    68  H    0.101739
    69  H    0.065712
    70  H    0.051849
    71  H    0.047979
    72  H    0.047863
    73  H    0.052945
    74  H    0.065297
    75  H    0.094044
    76  H    0.104350
    77  H    0.065438
    78  H    0.039313
    79  H    0.039694
    80  H    0.064920
    81  C   -0.032231
    82  C    0.134885
    83  N   -0.318722
    84  C    0.146433
    85  C   -0.019789
    86  C    0.050297
    87  C   -0.044088
    88  C   -0.040148
    89  C   -0.000829
    90  C   -0.071857
    91  C   -0.046010
    92  C    0.011921
    93  C   -0.079521
    94  C   -0.021276
    95  C    0.027524
    96  C    0.059234
    97  C   -0.040509
    98  C   -0.067019
    99  C    0.004032
   100  C   -0.036693
   101  C   -0.078573
   102  C    0.010171
   103  C   -0.016524
   104  C   -0.043546
   105  C    0.049308
   106  C   -0.029639
   107  C    0.005247
   108  C   -0.006244
   109  C    0.026715
   110  C   -0.032208
   111  C    0.137173
   112  N   -0.317969
   113  C    0.135472
   114  C   -0.018532
   115  C   -0.032965
   116  C    0.000101
   117  C    0.000744
   118  C   -0.056569
   119  C    0.177288
   120  O   -0.274485
   121  C    0.214999
   122  C   -0.076853
   123  C   -0.000192
   124  C    0.004854
   125  C   -0.015258
   126  C   -0.028730
   127  C    0.004653
   128  C   -0.006473
   129  C    0.027815
   130  H    0.059730
   131  H    0.097490
   132  H    0.098590
   133  H    0.050501
   134  H    0.037299
   135  H    0.027364
   136  H    0.027655
   137  H    0.036945
   138  H    0.039163
   139  H    0.047911
   140  H    0.059445
   141  H    0.046562
   142  H    0.059884
   143  H    0.097424
   144  H    0.103836
   145  H    0.048787
   146  H    0.036735
   147  H    0.040797
   148  H    0.041074
   149  H    0.041887
   150  H    0.041888
   151  H    0.040534
   152  H    0.040750
   153  H    0.047029
   154  H    0.059512
   155  H    0.046467
   156  C   -0.032342
   157  C    0.137166
   158  N   -0.317950
   159  C    0.135483
   160  C   -0.018556
   161  C    0.049379
   162  C   -0.043507
   163  C   -0.016589
   164  C    0.010238
   165  C   -0.078506
   166  C   -0.036671
   167  C    0.004010
   168  C   -0.067117
   169  C   -0.040471
   170  C    0.059214
   171  C    0.027439
   172  C   -0.021118
   173  C   -0.079586
   174  C    0.011928
   175  C   -0.046002
   176  C   -0.071930
   177  C   -0.000718
   178  C   -0.040146
   179  C   -0.044026
   180  C    0.050248
   181  C   -0.028703
   182  C    0.004662
   183  C   -0.006534
   184  C    0.027849
   185  C   -0.032220
   186  C    0.134826
   187  N   -0.318675
   188  C    0.146349
   189  C   -0.019845
   190  C   -0.015298
   191  C    0.004886
   192  C   -0.000164
   193  C   -0.076848
   194  C    0.215055
   195  O   -0.274518
   196  C    0.177313
   197  C   -0.056582
   198  C    0.000799
   199  C    0.000036
   200  C   -0.033007
   201  C   -0.029670
   202  C    0.005202
   203  C   -0.006298
   204  C    0.026862
   205  H    0.059937
   206  H    0.097454
   207  H    0.103803
   208  H    0.039208
   209  H    0.036885
   210  H    0.027644
   211  H    0.027294
   212  H    0.037244
   213  H    0.050528
   214  H    0.047010
   215  H    0.059512
   216  H    0.046511
   217  H    0.059720
   218  H    0.097562
   219  H    0.098638
   220  H    0.040754
   221  H    0.040490
   222  H    0.041890
   223  H    0.041879
   224  H    0.041069
   225  H    0.040781
   226  H    0.036761
   227  H    0.048803
   228  H    0.047920
   229  H    0.059462
   230  H    0.046573
 Sum of Mulliken charges =   4.00000

 Dipole moment (field-independent basis, Debye):
    X=             -0.0004    Y=            -44.3557    Z=              0.0016  Tot=             44.3557
 Quadrupole moment (field-independent basis, Debye-Ang):
   XX=            431.6528   YY=           -529.2345   ZZ=           -717.9422
   XY=             -0.0115   XZ=            -22.7274   YZ=              0.0096

 Normal termination of Gaussian 16 at Fri Jun  2 04:58:11 2023.
