 Gaussian 16, Revision C.01,
 Gaussian 16:  ES64L-G16RevC.01  3-Jul-2019

 ----------------------------------------------------------------
 # SP B3LYP/def2svp empiricaldispersion=GD3BJ scrf=(solvent=dmso)
 ----------------------------------------------------------------

 -----
 m2_lb
 -----
 Symbolic Z-matrix:
 Charge =  4 Multiplicity = 1

                         Standard orientation:
 ---------------------------------------------------------------------
 Center     Atomic      Atomic             Coordinates (Angstroms)
 Number     Number       Type             X           Y           Z
 ---------------------------------------------------------------------
      1          6           0       -8.107982   -1.731987    2.321169
      2          6           0       -7.931476   -2.331865    3.540299
      3          6           0       -6.880739   -1.916832    4.396301
      4          6           0       -6.594231   -2.542217    5.632269
      5          6           0       -5.519822   -2.110831    6.378026
      6          6           0       -4.720269   -1.025061    5.952938
      7          6           0       -4.988560   -0.355697    4.775302
      8          6           0       -6.063468   -0.830727    3.960794
      9          6           0       -6.312315   -0.296683    2.682449
     10          6           0       -4.198281    0.826086    4.360078
     11          6           0       -2.821954    0.718205    4.126671
     12          6           0       -2.084258    1.820285    3.714472
     13          6           0       -2.711859    3.064040    3.525741
     14          6           0       -4.088002    3.181911    3.789771
     15          6           0       -4.820098    2.074327    4.196058
     16          6           0       -1.979062    4.166724    2.999598
     17          6           0       -1.364150    5.062087    2.448892
     18          6           0       -0.646887    5.980181    1.614433
     19          6           0       -0.662965    7.368447    1.821517
     20          6           0        0.029763    8.174211    0.922529
     21          6           0        0.712040    7.588719   -0.139998
     22          6           0        0.675354    6.190629   -0.260279
     23          6           0        1.385985    5.480881   -1.282291
     24          6           0        1.998781    4.730970   -2.020620
     25          6           0        2.730247    3.772804   -2.779848
     26          6           0        4.104211    3.950838   -3.020848
     27          6           0        4.836555    2.959993   -3.661035
     28          6           0        4.216815    1.773927   -4.086289
     29          6           0        2.842068    1.613253   -3.875151
     30          6           0        2.104155    2.597405   -3.230389
     31          6           0        5.008435    0.709953   -4.746089
     32          6           0        4.747599    0.314959   -6.043242
     33          6           0        5.549063   -0.653816   -6.689969
     34          6           0        6.617875   -1.240303   -6.049490
     35          6           0        6.896483   -0.900660   -4.704989
     36          6           0        7.941521   -1.494231   -3.953775
     37          6           0        8.110248   -1.175876   -2.631917
     38          6           0        6.317618    0.307201   -2.682019
     39          6           0        6.077001    0.065673   -4.047857
     40          6           0       -8.123099    2.313241    1.725343
     41          6           0       -7.954276    3.533438    2.325381
     42          6           0       -6.905056    4.393549    1.914689
     43          6           0       -6.626894    5.631212    2.540479
     44          6           0       -5.553797    6.381412    2.113574
     45          6           0       -4.747731    5.959324    1.031468
     46          6           0       -5.008237    4.780587    0.360916
     47          6           0       -6.081261    3.961181    0.832178
     48          6           0       -6.322187    2.681246    0.298112
     49          6           0       -4.211535    4.369133   -0.817812
     50          6           0       -2.833337    4.148266   -0.706173
     51          6           0       -2.089586    3.737214   -1.804655
     52          6           0       -2.712974    3.537726   -3.048843
     53          6           0       -4.090708    3.791249   -3.171207
     54          6           0       -4.828788    4.196035   -2.067147
     55          6           0       -1.975481    3.011305   -4.148286
     56          6           0       -1.359750    2.460292   -5.042889
     57          6           0       -0.641564    1.626519   -5.960870
     58          6           0       -0.655753    1.835662   -7.348882
     59          6           0        0.036844    0.936993   -8.155208
     60          6           0        0.717413   -0.126860   -7.570287
     61          6           0        0.678619   -0.249354   -6.172464
     62          6           0        1.386198   -1.273974   -5.463422
     63          6           0        1.995884   -2.015240   -4.713847
     64          6           0        2.727084   -2.777983   -3.758300
     65          6           0        2.100357   -3.238398   -2.587143
     66          6           0        2.838950   -3.885875   -1.605239
     67          6           0        4.215040   -4.089587   -1.763768
     68          6           0        4.835404   -3.654664   -2.946043
     69          6           0        4.102413   -3.012260   -3.934828
     70          6           0        5.008310   -4.750896   -0.702097
     71          6           0        4.748191   -6.048192   -0.307259
     72          6           0        5.551830   -6.695553    0.659393
     73          6           0        6.622794   -6.056005    1.243106
     74          6           0        6.901279   -4.711483    0.903168
     75          6           0        7.949295   -3.961114    1.492881
     76          6           0        8.117029   -2.639024    1.174959
     77          6           0        6.317562   -2.687254   -0.299690
     78          6           0        6.078656   -4.053521   -0.059819
     79          6           0       -8.127247    1.721400   -2.314164
     80          6           0       -7.955124    2.325169   -3.532029
     81          6           0       -6.902635    1.918257   -4.390013
     82          6           0       -6.621378    2.548325   -5.624759
     83          6           0       -5.545718    2.124537   -6.373131
     84          6           0       -4.740340    1.041331   -5.952454
     85          6           0       -5.003879    0.366739   -4.776662
     86          6           0       -6.079331    0.835012   -3.958742
     87          6           0       -6.323701    0.297075   -2.681070
     88          6           0       -4.208905   -0.813809   -4.367116
     89          6           0       -4.828121   -2.062865   -4.198763
     90          6           0       -4.092318   -3.169149   -3.795986
     91          6           0       -2.714835   -3.049336   -3.539654
     92          6           0       -2.089452   -1.805348   -3.734136
     93          6           0       -2.830946   -0.704574   -4.143269
     94          6           0       -1.980080   -4.151230   -3.014598
     95          6           0       -1.367554   -5.047900   -2.463309
     96          6           0       -0.655893   -5.968328   -1.626677
     97          6           0       -0.681719   -7.357041   -1.830231
     98          6           0        0.003909   -8.165441   -0.928199
     99          6           0        0.688919   -7.582000    0.133668
    100          6           0        0.661365   -6.183485    0.250891
    101          6           0        1.372731   -5.475939    1.274060
    102          6           0        1.984814   -4.727085    2.014055
    103          6           0        2.716605   -3.770609    2.775186
    104          6           0        2.088154   -2.601540    3.238671
    105          6           0        2.825898   -1.618461    3.885210
    106          6           0        4.203060   -1.773346    4.084750
    107          6           0        4.825421   -2.953200    3.645956
    108          6           0        4.093160   -3.943459    3.004903
    109          6           0        4.994129   -0.710985    4.747408
    110          6           0        4.729665   -0.316232    6.043972
    111          6           0        5.530535    0.650725    6.694150
    112          6           0        6.603441    1.234887    6.058260
    113          6           0        6.886566    0.894990    4.714753
    114          6           0        7.937381    1.484993    3.968592
    115          6           0        8.111001    1.166835    2.647309
    116          6           0        6.310681   -0.307294    2.688110
    117          6           0        6.066539   -0.068156    4.053667
    118          6           0       -8.131300   -2.316709   -1.723606
    119          6           0       -7.960426   -3.532732   -2.331425
    120          6           0       -6.907672   -4.392255   -1.928478
    121          6           0       -6.626483   -5.624834   -2.562898
    122          6           0       -5.551281   -6.375153   -2.141403
    123          6           0       -4.746383   -5.959031   -1.056019
    124          6           0       -5.009562   -4.785352   -0.377872
    125          6           0       -6.083965   -3.965039   -0.844092
    126          6           0       -6.325881   -2.688362   -0.302876
    127          6           0       -4.215626   -4.378592    0.804397
    128          6           0       -4.835184   -4.219729    2.054512
    129          6           0       -4.101563   -3.814937    3.161559
    130          6           0       -2.726341   -3.546864    3.041275
    131          6           0       -2.100244   -3.733621    1.796455
    132          6           0       -2.839466   -4.144716    0.694912
    133          6           0       -1.994583   -3.017604    4.143065
    134          6           0       -1.384589   -2.463366    5.039621
    135          6           0       -0.676818   -1.624467    5.960779
    136          6           0       -0.715109   -1.819772    7.350345
    137          6           0       -0.033700   -0.915252    8.159449
    138          6           0        0.659110    0.141517    7.575885
    139          6           0        0.643436    0.251036    6.176554
    140          6           0        1.360345    1.270348    5.469007
    141          6           0        1.974839    2.008237    4.720034
    142          6           0        2.709033    2.768033    3.764301
    143          6           0        2.084036    3.229017    2.592406
    144          6           0        2.824164    3.875408    1.610951
    145          6           0        4.200363    4.077676    1.770718
    146          6           0        4.819260    3.641100    2.953185
    147          6           0        4.084637    2.999778    3.941474
    148          6           0        4.994636    4.741359    0.711295
    149          6           0        4.732428    6.038683    0.317701
    150          6           0        5.537384    6.689737   -0.645210
    151          6           0        6.612334    6.054240   -1.226023
    152          6           0        6.893101    4.709845   -0.887555
    153          6           0        7.945459    3.963527   -1.474667
    154          6           0        8.116131    2.641370   -1.158329
    155          6           0        6.311074    2.681976    0.309879
    156          6           0        6.068886    4.047909    0.071339
    157          1           0       -8.900599   -2.036920    1.637462
    158          1           0       -8.598096   -3.141563    3.840684
    159          1           0       -7.219125   -3.369778    5.972990
    160          1           0       -5.285644   -2.603192    7.324153
    161          1           0       -3.894678   -0.687246    6.583197
    162          1           0       -5.673644    0.499189    2.295818
    163          1           0       -2.323113   -0.244228    4.242163
    164          1           0       -1.013959    1.710610    3.529809
    165          1           0       -4.578041    4.148505    3.664322
    166          1           0       -5.888468    2.179492    4.401791
    167          1           0       -1.205625    7.793911    2.666592
    168          1           0        0.038340    9.258356    1.050278
    169          1           0        1.262999    8.190381   -0.863975
    170          1           0        4.592475    4.869331   -2.691908
    171          1           0        5.903447    3.111208   -3.845075
    172          1           0        2.345464    0.696436   -4.193522
    173          1           0        1.035233    2.446766   -3.067824
    174          1           0        3.926915    0.784420   -6.590161
    175          1           0        5.321120   -0.926673   -7.722430
    176          1           0        7.244036   -1.974582   -6.559477
    177          1           0        8.610425   -2.219542   -4.419337
    178          1           0        8.898532   -1.624417   -2.026745
    179          1           0        5.677185    1.001214   -2.135162
    180          1           0       -8.914818    1.626695    2.026559
    181          1           0       -8.626048    3.832055    3.131490
    182          1           0       -7.257610    5.970188    3.364278
    183          1           0       -5.325640    7.328949    2.606066
    184          1           0       -3.923580    6.593154    0.697046
    185          1           0       -5.678463    2.296638   -0.494688
    186          1           0       -2.337891    4.272044    0.257005
    187          1           0       -1.018037    3.561868   -1.691463
    188          1           0       -4.577190    3.658632   -4.138608
    189          1           0       -5.898348    4.393346   -2.176416
    190          1           0       -1.196997    2.681995   -7.773663
    191          1           0        0.046440    1.065569   -9.239261
    192          1           0        1.268363   -0.850441   -8.172424
    193          1           0        1.030416   -3.081496   -2.437670
    194          1           0        2.341517   -4.211781   -0.691543
    195          1           0        5.903557   -3.832514   -3.095536
    196          1           0        4.591003   -2.675718   -4.850323
    197          1           0        3.925486   -6.594150   -0.774184
    198          1           0        5.323812   -7.727903    0.932659
    199          1           0        7.250764   -6.566681    1.975347
    200          1           0        8.621466   -4.427604    2.214575
    201          1           0        8.908375   -2.034971    1.619796
    202          1           0        5.673592   -2.139201   -0.989456
    203          1           0       -8.921649    2.019642   -1.629333
    204          1           0       -8.626254    3.131760   -3.830530
    205          1           0       -7.251688    3.372937   -5.962578
    206          1           0       -5.314938    2.620454   -7.318232
    207          1           0       -3.914390    0.709344   -6.585260
    208          1           0       -5.680215   -0.496062   -2.296739
    209          1           0       -5.897547   -2.170033   -4.397830
    210          1           0       -4.580410   -4.136219   -3.666855
    211          1           0       -1.018122   -1.694153   -3.556211
    212          1           0       -2.333870    0.258276   -4.263127
    213          1           0       -1.226362   -7.780738   -2.674928
    214          1           0        0.004668   -9.250026   -1.052600
    215          1           0        1.234651   -8.185799    0.859793
    216          1           0        1.017401   -2.454638    3.084866
    217          1           0        2.326803   -0.706593    4.213668
    218          1           0        5.894516   -3.100385    3.820346
    219          1           0        4.583429   -4.857301    2.666293
    220          1           0        3.906247   -0.784717    6.587491
    221          1           0        5.298797    0.924097    7.725653
    222          1           0        7.229436    1.967386    6.570990
    223          1           0        8.606805    2.207140    4.438257
    224          1           0        8.905316    1.611150    2.046692
    225          1           0        5.668705   -0.996655    2.137221
    226          1           0       -8.926044   -1.630959   -2.018790
    227          1           0       -8.632800   -3.828385   -3.138057
    228          1           0       -7.256446   -5.959671   -3.388963
    229          1           0       -5.320694   -7.318380   -2.641009
    230          1           0       -3.920670   -6.593066   -0.725819
    231          1           0       -5.680828   -2.306727    0.490273
    232          1           0       -5.903131   -4.427110    2.161587
    233          1           0       -4.589809   -3.692278    4.129379
    234          1           0       -1.030331   -3.547461    1.685245
    235          1           0       -2.342515   -4.257880   -0.268806
    236          1           0       -1.266251   -2.660087    7.774306
    237          1           0       -0.042751   -1.033801    9.244656
    238          1           0        1.201398    0.869643    8.180365
    239          1           0        1.013925    3.074072    2.442343
    240          1           0        2.327583    4.202385    0.697148
    241          1           0        5.887513    3.817432    3.103922
    242          1           0        4.572280    2.662894    4.857331
    243          1           0        3.907805    6.582576    0.783781
    244          1           0        5.306971    7.721797   -0.917599
    245          1           0        7.241761    6.567516   -1.955184
    246          1           0        8.618826    4.434008   -2.192687
    247          1           0        8.911225    2.040461   -1.600614
    248          1           0        5.666230    2.130897    0.996440
    249          7           0       -7.282855   -0.732834    1.894712
    250          7           0        0.008897    5.410332    0.597524
    251          7           0        7.282438   -0.292871   -2.002401
    252          7           0       -7.291085    1.889540    0.730694
    253          7           0        0.012207    0.608017   -5.391711
    254          7           0        7.284684   -2.008342    0.297218
    255          7           0       -7.295290    0.726519   -1.890880
    256          7           0        0.002264   -5.400592   -0.610190
    257          7           0        7.280629    0.289623    2.013106
    258          7           0       -7.297006   -1.896113   -0.729375
    259          7           0       -0.010922   -0.613060    5.393013
    260          7           0        7.282225    2.006766   -0.284771
    261         46           0       -7.376038   -0.003686    0.002000
    262         46           0        7.365073   -0.000941    0.005398
 ---------------------------------------------------------------------

 SCF Done:  E(RB3LYP) =  -6908.29781532     A.U. after   18 cycles

 The electronic state is 1-A.
 Alpha  occ. eigenvalues --  -14.41359 -14.41358 -14.41355 -14.41351 -14.41351
 Alpha  occ. eigenvalues --  -14.41349 -14.41347 -14.41345 -14.34781 -14.34779
 Alpha  occ. eigenvalues --  -14.34778 -14.34777 -10.27344 -10.27343 -10.27341
 Alpha  occ. eigenvalues --  -10.27338 -10.27335 -10.27335 -10.27334 -10.27328
 Alpha  occ. eigenvalues --  -10.26649 -10.26648 -10.26646 -10.26645 -10.26645
 Alpha  occ. eigenvalues --  -10.26644 -10.26644 -10.26643 -10.26118 -10.26117
 Alpha  occ. eigenvalues --  -10.26116 -10.26115 -10.26114 -10.26112 -10.26110
 Alpha  occ. eigenvalues --  -10.26107 -10.24041 -10.24037 -10.24037 -10.24036
 Alpha  occ. eigenvalues --  -10.24036 -10.24035 -10.24030 -10.24029 -10.23765
 Alpha  occ. eigenvalues --  -10.23765 -10.23764 -10.23763 -10.23762 -10.23758
 Alpha  occ. eigenvalues --  -10.23756 -10.23754 -10.23401 -10.23400 -10.23398
 Alpha  occ. eigenvalues --  -10.23398 -10.23396 -10.23396 -10.23395 -10.23392
 Alpha  occ. eigenvalues --  -10.23378 -10.23375 -10.23374 -10.23373 -10.23372
 Alpha  occ. eigenvalues --  -10.23370 -10.23367 -10.23366 -10.23049 -10.23048
 Alpha  occ. eigenvalues --  -10.23047 -10.23047 -10.23045 -10.23044 -10.23042
 Alpha  occ. eigenvalues --  -10.23040 -10.22617 -10.22614 -10.22614 -10.22614
 Alpha  occ. eigenvalues --  -10.22408 -10.22406 -10.22406 -10.22406 -10.22403
 Alpha  occ. eigenvalues --  -10.22402 -10.22399 -10.22398 -10.22306 -10.22306
 Alpha  occ. eigenvalues --  -10.22305 -10.22305 -10.22303 -10.22301 -10.22301
 Alpha  occ. eigenvalues --  -10.22300 -10.22100 -10.22099 -10.22098 -10.22097
 Alpha  occ. eigenvalues --  -10.22097 -10.22096 -10.22096 -10.22095 -10.22055
 Alpha  occ. eigenvalues --  -10.22053 -10.22052 -10.22052 -10.22051 -10.22048
 Alpha  occ. eigenvalues --  -10.22046 -10.22045 -10.21991 -10.21989 -10.21988
 Alpha  occ. eigenvalues --  -10.21988 -10.21985 -10.21985 -10.21982 -10.21979
 Alpha  occ. eigenvalues --  -10.21496 -10.21495 -10.21495 -10.21494 -10.21491
 Alpha  occ. eigenvalues --  -10.21489 -10.21488 -10.21487 -10.21442 -10.21441
 Alpha  occ. eigenvalues --  -10.21440 -10.21440 -10.21438 -10.21437 -10.21436
 Alpha  occ. eigenvalues --  -10.21433 -10.21345 -10.21340 -10.21340 -10.21340
 Alpha  occ. eigenvalues --  -10.21339 -10.21338 -10.21335 -10.21334 -10.21333
 Alpha  occ. eigenvalues --  -10.21333 -10.21331 -10.21330 -10.21329 -10.21329
 Alpha  occ. eigenvalues --  -10.21328 -10.21325 -10.20887 -10.20886 -10.20886
 Alpha  occ. eigenvalues --  -10.20884 -10.20883 -10.20881 -10.20880 -10.20878
 Alpha  occ. eigenvalues --  -10.20837 -10.20834 -10.20834 -10.20832 -10.20832
 Alpha  occ. eigenvalues --  -10.20831 -10.20830 -10.20823  -3.53325  -3.53308
 Alpha  occ. eigenvalues --   -2.21961  -2.21958  -2.21945  -2.21943  -2.17717
 Alpha  occ. eigenvalues --   -2.17699  -1.00521  -1.00514  -0.99786  -0.99781
 Alpha  occ. eigenvalues --   -0.99778  -0.99777  -0.99552  -0.99546  -0.97159
 Alpha  occ. eigenvalues --   -0.97153  -0.97152  -0.97152  -0.89956  -0.89954
 Alpha  occ. eigenvalues --   -0.89836  -0.89835  -0.89833  -0.89832  -0.89780
 Alpha  occ. eigenvalues --   -0.89776  -0.87796  -0.87774  -0.87736  -0.87735
 Alpha  occ. eigenvalues --   -0.87721  -0.87719  -0.87705  -0.87702  -0.83280
 Alpha  occ. eigenvalues --   -0.83213  -0.83213  -0.83171  -0.83041  -0.83022
 Alpha  occ. eigenvalues --   -0.83009  -0.83008  -0.82240  -0.82208  -0.82206
 Alpha  occ. eigenvalues --   -0.82198  -0.81999  -0.81993  -0.81991  -0.81989
 Alpha  occ. eigenvalues --   -0.80503  -0.80365  -0.80365  -0.80331  -0.80307
 Alpha  occ. eigenvalues --   -0.80158  -0.80155  -0.80154  -0.79823  -0.79683
 Alpha  occ. eigenvalues --   -0.79683  -0.79639  -0.79476  -0.79390  -0.79390
 Alpha  occ. eigenvalues --   -0.79345  -0.77143  -0.77099  -0.77099  -0.77087
 Alpha  occ. eigenvalues --   -0.76437  -0.76401  -0.76400  -0.76387  -0.76298
 Alpha  occ. eigenvalues --   -0.76289  -0.76288  -0.76253  -0.76247  -0.76179
 Alpha  occ. eigenvalues --   -0.76177  -0.76121  -0.74102  -0.74092  -0.74085
 Alpha  occ. eigenvalues --   -0.74083  -0.72882  -0.72839  -0.72839  -0.72815
 Alpha  occ. eigenvalues --   -0.68694  -0.68677  -0.68598  -0.68551  -0.68517
 Alpha  occ. eigenvalues --   -0.68517  -0.68487  -0.68486  -0.67443  -0.67380
 Alpha  occ. eigenvalues --   -0.67350  -0.67349  -0.67315  -0.67313  -0.67303
 Alpha  occ. eigenvalues --   -0.67290  -0.66558  -0.66540  -0.66496  -0.66490
 Alpha  occ. eigenvalues --   -0.66438  -0.66437  -0.66389  -0.66388  -0.64924
 Alpha  occ. eigenvalues --   -0.64918  -0.64916  -0.64903  -0.64799  -0.64736
 Alpha  occ. eigenvalues --   -0.64734  -0.64682  -0.62699  -0.62632  -0.62627
 Alpha  occ. eigenvalues --   -0.62601  -0.62586  -0.62537  -0.62535  -0.62525
 Alpha  occ. eigenvalues --   -0.61450  -0.61263  -0.61262  -0.61245  -0.61155
 Alpha  occ. eigenvalues --   -0.61094  -0.61093  -0.61081  -0.58400  -0.58223
 Alpha  occ. eigenvalues --   -0.58220  -0.58052  -0.56753  -0.56729  -0.56487
 Alpha  occ. eigenvalues --   -0.56386  -0.56360  -0.56357  -0.56283  -0.56283
 Alpha  occ. eigenvalues --   -0.55985  -0.55936  -0.55737  -0.55736  -0.55712
 Alpha  occ. eigenvalues --   -0.55711  -0.55683  -0.55627  -0.55499  -0.55337
 Alpha  occ. eigenvalues --   -0.55305  -0.55304  -0.55059  -0.54824  -0.54635
 Alpha  occ. eigenvalues --   -0.54613  -0.54612  -0.54527  -0.54316  -0.54308
 Alpha  occ. eigenvalues --   -0.53777  -0.53776  -0.53756  -0.53755  -0.52510
 Alpha  occ. eigenvalues --   -0.52487  -0.52484  -0.52462  -0.50544  -0.50450
 Alpha  occ. eigenvalues --   -0.50450  -0.50443  -0.50389  -0.50245  -0.50170
 Alpha  occ. eigenvalues --   -0.50169  -0.50119  -0.49971  -0.49845  -0.49844
 Alpha  occ. eigenvalues --   -0.49680  -0.49557  -0.49259  -0.49133  -0.49060
 Alpha  occ. eigenvalues --   -0.49058  -0.49023  -0.49021  -0.48932  -0.48909
 Alpha  occ. eigenvalues --   -0.48724  -0.48706  -0.48705  -0.48695  -0.48683
 Alpha  occ. eigenvalues --   -0.48682  -0.48460  -0.48392  -0.48322  -0.48321
 Alpha  occ. eigenvalues --   -0.48189  -0.48126  -0.47966  -0.47959  -0.47800
 Alpha  occ. eigenvalues --   -0.47798  -0.47707  -0.47704  -0.47527  -0.47518
 Alpha  occ. eigenvalues --   -0.46558  -0.46551  -0.46502  -0.46501  -0.46472
 Alpha  occ. eigenvalues --   -0.46471  -0.46417  -0.46365  -0.45980  -0.45979
 Alpha  occ. eigenvalues --   -0.45888  -0.45884  -0.45709  -0.45694  -0.45667
 Alpha  occ. eigenvalues --   -0.45446  -0.45441  -0.45389  -0.45316  -0.45313
 Alpha  occ. eigenvalues --   -0.45145  -0.45055  -0.44890  -0.44812  -0.44807
 Alpha  occ. eigenvalues --   -0.44664  -0.44507  -0.44418  -0.44348  -0.44346
 Alpha  occ. eigenvalues --   -0.44319  -0.44304  -0.43555  -0.43496  -0.43493
 Alpha  occ. eigenvalues --   -0.43449  -0.43447  -0.43373  -0.42968  -0.42968
 Alpha  occ. eigenvalues --   -0.42931  -0.42929  -0.42762  -0.42740  -0.42739
 Alpha  occ. eigenvalues --   -0.42737  -0.42322  -0.42317  -0.42171  -0.42143
 Alpha  occ. eigenvalues --   -0.41030  -0.41028  -0.40934  -0.40933  -0.40882
 Alpha  occ. eigenvalues --   -0.40851  -0.40760  -0.40732  -0.40672  -0.40668
 Alpha  occ. eigenvalues --   -0.40611  -0.40609  -0.40592  -0.40541  -0.40479
 Alpha  occ. eigenvalues --   -0.40416  -0.40415  -0.40361  -0.40356  -0.40238
 Alpha  occ. eigenvalues --   -0.40166  -0.40150  -0.40084  -0.40083  -0.40046
 Alpha  occ. eigenvalues --   -0.40046  -0.39484  -0.39480  -0.39431  -0.39428
 Alpha  occ. eigenvalues --   -0.38929  -0.38914  -0.38694  -0.38478  -0.38123
 Alpha  occ. eigenvalues --   -0.38118  -0.37458  -0.37455  -0.37447  -0.37363
 Alpha  occ. eigenvalues --   -0.37302  -0.37093  -0.37091  -0.36982  -0.36751
 Alpha  occ. eigenvalues --   -0.36750  -0.36692  -0.36691  -0.36585  -0.36539
 Alpha  occ. eigenvalues --   -0.36535  -0.36421  -0.35536  -0.35530  -0.35514
 Alpha  occ. eigenvalues --   -0.35432  -0.35090  -0.35089  -0.34880  -0.34821
 Alpha  occ. eigenvalues --   -0.34818  -0.34221  -0.33946  -0.33943  -0.33683
 Alpha  occ. eigenvalues --   -0.33672  -0.33643  -0.33557  -0.33555  -0.33185
 Alpha  occ. eigenvalues --   -0.33074  -0.32922  -0.32919  -0.32430  -0.32272
 Alpha  occ. eigenvalues --   -0.32269  -0.32083  -0.32080  -0.32054  -0.32004
 Alpha  occ. eigenvalues --   -0.31877  -0.31871  -0.31829  -0.31717  -0.31712
 Alpha  occ. eigenvalues --   -0.31678  -0.30361  -0.30255  -0.29874  -0.29845
 Alpha  occ. eigenvalues --   -0.29841  -0.29727  -0.29698  -0.29692  -0.29254
 Alpha  occ. eigenvalues --   -0.29193  -0.29190  -0.29154  -0.29136  -0.29064
 Alpha  occ. eigenvalues --   -0.29062  -0.29010  -0.28167  -0.28050  -0.28029
 Alpha  occ. eigenvalues --   -0.27976  -0.27974  -0.27966  -0.27964  -0.27957
 Alpha  occ. eigenvalues --   -0.27942  -0.27940  -0.27877  -0.27873  -0.27741
 Alpha  occ. eigenvalues --   -0.27489  -0.26966  -0.26770  -0.26766  -0.26549
 Alpha  occ. eigenvalues --   -0.26546  -0.26186  -0.26185  -0.25911  -0.24779
 Alpha  occ. eigenvalues --   -0.24776  -0.24756  -0.24754  -0.24036  -0.24007
 Alpha  occ. eigenvalues --   -0.24005  -0.23977
 Alpha virt. eigenvalues --   -0.10024  -0.10012  -0.09798  -0.09798  -0.09757
 Alpha virt. eigenvalues --   -0.09756  -0.09739  -0.09683  -0.08493  -0.08456
 Alpha virt. eigenvalues --   -0.08069  -0.07895  -0.07892  -0.07790  -0.07654

 Mulliken charges:
               1
     1  C    0.113761
     2  C   -0.002706
     3  C    0.072111
     4  C   -0.001900
     5  C    0.043169
     6  C   -0.011537
     7  C    0.072617
     8  C    0.060016
     9  C    0.090942
    10  C    0.002703
    11  C    0.023586
    12  C    0.002883
    13  C   -0.025996
    14  C    0.020264
    15  C   -0.017928
    16  C    0.003561
    17  C    0.072031
    18  C   -0.087862
    19  C    0.047242
    20  C    0.065449
    21  C    0.047194
    22  C   -0.088855
    23  C    0.071671
    24  C    0.004436
    25  C   -0.026623
    26  C    0.019733
    27  C   -0.016791
    28  C    0.000339
    29  C    0.024882
    30  C    0.003141
    31  C    0.071309
    32  C   -0.011149
    33  C    0.043188
    34  C   -0.002016
    35  C    0.072876
    36  C   -0.002645
    37  C    0.113557
    38  C    0.091567
    39  C    0.059668
    40  C    0.114214
    41  C   -0.002435
    42  C    0.072709
    43  C   -0.002477
    44  C    0.043874
    45  C   -0.012907
    46  C    0.073303
    47  C    0.059380
    48  C    0.090598
    49  C    0.004057
    50  C    0.023915
    51  C    0.003254
    52  C   -0.026397
    53  C    0.020330
    54  C   -0.018946
    55  C    0.003559
    56  C    0.071954
    57  C   -0.087767
    58  C    0.047243
    59  C    0.065375
    60  C    0.047220
    61  C   -0.089059
    62  C    0.071412
    63  C    0.004806
    64  C   -0.026329
    65  C    0.003199
    66  C    0.024671
    67  C    0.002018
    68  C   -0.018440
    69  C    0.020090
    70  C    0.072517
    71  C   -0.012056
    72  C    0.043534
    73  C   -0.002286
    74  C    0.073130
    75  C   -0.002374
    76  C    0.113786
    77  C    0.090522
    78  C    0.059256
    79  C    0.114035
    80  C   -0.002406
    81  C    0.072213
    82  C   -0.002365
    83  C    0.043968
    84  C   -0.013026
    85  C    0.073565
    86  C    0.059206
    87  C    0.090729
    88  C    0.004171
    89  C   -0.018939
    90  C    0.020351
    91  C   -0.026390
    92  C    0.003286
    93  C    0.023586
    94  C    0.004420
    95  C    0.071513
    96  C   -0.088575
    97  C    0.047346
    98  C    0.065342
    99  C    0.047246
   100  C   -0.088457
   101  C    0.072049
   102  C    0.003617
   103  C   -0.025971
   104  C    0.003080
   105  C    0.023941
   106  C    0.003182
   107  C   -0.018763
   108  C    0.020178
   109  C    0.072679
   110  C   -0.012094
   111  C    0.043504
   112  C   -0.002313
   113  C    0.072891
   114  C   -0.002464
   115  C    0.113822
   116  C    0.090262
   117  C    0.059521
   118  C    0.114346
   119  C   -0.002460
   120  C    0.072579
   121  C   -0.002435
   122  C    0.043966
   123  C   -0.012662
   124  C    0.073224
   125  C    0.058721
   126  C    0.091028
   127  C    0.002817
   128  C   -0.018758
   129  C    0.020194
   130  C   -0.026713
   131  C    0.003299
   132  C    0.024450
   133  C    0.005169
   134  C    0.071267
   135  C   -0.088834
   136  C    0.047191
   137  C    0.065436
   138  C    0.047304
   139  C   -0.087930
   140  C    0.072253
   141  C    0.003483
   142  C   -0.025796
   143  C    0.002896
   144  C    0.023908
   145  C    0.002339
   146  C   -0.018212
   147  C    0.020129
   148  C    0.072541
   149  C   -0.011557
   150  C    0.043198
   151  C   -0.002324
   152  C    0.073459
   153  C   -0.002627
   154  C    0.114006
   155  C    0.090214
   156  C    0.059692
   157  H    0.078156
   158  H    0.023607
   159  H    0.009059
   160  H    0.022157
   161  H    0.006630
   162  H    0.081665
   163  H   -0.022754
   164  H   -0.007116
   165  H   -0.007771
   166  H    0.007148
   167  H    0.012129
   168  H    0.024650
   169  H    0.012297
   170  H   -0.007181
   171  H    0.007029
   172  H   -0.022620
   173  H   -0.006717
   174  H    0.006719
   175  H    0.022226
   176  H    0.009043
   177  H    0.023715
   178  H    0.078461
   179  H    0.081414
   180  H    0.078361
   181  H    0.023634
   182  H    0.009027
   183  H    0.022241
   184  H    0.006988
   185  H    0.081700
   186  H   -0.023847
   187  H   -0.006974
   188  H   -0.008186
   189  H    0.007133
   190  H    0.012145
   191  H    0.024661
   192  H    0.012288
   193  H   -0.006771
   194  H   -0.023062
   195  H    0.007226
   196  H   -0.007601
   197  H    0.006841
   198  H    0.022282
   199  H    0.009059
   200  H    0.023743
   201  H    0.078668
   202  H    0.082015
   203  H    0.078387
   204  H    0.023631
   205  H    0.009069
   206  H    0.022272
   207  H    0.007029
   208  H    0.081887
   209  H    0.007197
   210  H   -0.008151
   211  H   -0.006931
   212  H   -0.023470
   213  H    0.012216
   214  H    0.024661
   215  H    0.012219
   216  H   -0.007030
   217  H   -0.023026
   218  H    0.007226
   219  H   -0.007840
   220  H    0.006975
   221  H    0.022255
   222  H    0.009061
   223  H    0.023684
   224  H    0.078683
   225  H    0.081813
   226  H    0.078397
   227  H    0.023631
   228  H    0.009046
   229  H    0.022276
   230  H    0.006770
   231  H    0.082144
   232  H    0.007343
   233  H   -0.007514
   234  H   -0.006813
   235  H   -0.023410
   236  H    0.012290
   237  H    0.024683
   238  H    0.012197
   239  H   -0.007172
   240  H   -0.022630
   241  H    0.007215
   242  H   -0.007848
   243  H    0.006722
   244  H    0.022182
   245  H    0.009002
   246  H    0.023660
   247  H    0.078459
   248  H    0.081837
   249  N   -0.251199
   250  N   -0.136529
   251  N   -0.250836
   252  N   -0.251211
   253  N   -0.136524
   254  N   -0.251132
   255  N   -0.251386
   256  N   -0.136334
   257  N   -0.251088
   258  N   -0.251173
   259  N   -0.136861
   260  N   -0.251002
   261  Pd   0.377864
   262  Pd   0.376535
 Sum of Mulliken charges =   4.00000

 Dipole moment (field-independent basis, Debye):
    X=             -0.0138    Y=              0.0134    Z=              0.0534  Tot=              0.0568
 Quadrupole moment (field-independent basis, Debye-Ang):
   XX=            -19.7662   YY=           -632.7127   ZZ=           -633.0980
   XY=              0.1631   XZ=             -0.1207   YZ=              0.1859

 Normal termination of Gaussian 16 at Fri Nov 17 11:56:35 2023.
