 Gaussian 16, Revision C.01,
 Gaussian 16:  ES64L-G16RevC.01  3-Jul-2019

 ------------------------------------------------------------------
 # SP PBE1PBE/def2svp empiricaldispersion=GD3BJ scrf=(solvent=dmso)
 ------------------------------------------------------------------

 ---------
 cis_l3_ld
 ---------
 Symbolic Z-matrix:
 Charge =  4 Multiplicity = 1

                         Standard orientation:
 ---------------------------------------------------------------------
 Center     Atomic      Atomic             Coordinates (Angstroms)
 Number     Number       Type             X           Y           Z
 ---------------------------------------------------------------------
      1         46           0        6.654595   -2.367106   -0.127600
      2         46           0       -6.634805   -2.382099    0.101100
      3          6           0        2.827995   -2.039904   -1.852300
      4          6           0        4.105295   -1.760104   -1.409100
      5          7           0        5.075894   -2.687705   -1.388500
      6          6           0        4.818794   -3.903705   -1.895100
      7          6           0        3.561194   -4.262904   -2.350100
      8          6           0        2.505194   -3.338504   -2.281200
      9          6           0        1.128994   -3.718803   -2.564500
     10          6           0        0.636393   -4.906303   -3.078900
     11          6           0       -0.772907   -4.963002   -3.088700
     12          6           0       -1.359306   -3.813201   -2.592200
     13         16           0       -0.163706   -2.665602   -2.109400
     14          6           0       -2.761706   -3.516701   -2.330100
     15          6           0       -3.222505   -2.191700   -2.261800
     16          6           0       -4.489905   -1.936200   -1.775100
     17          7           0       -5.310806   -2.918499   -1.369000
     18          6           0       -4.937806   -4.194600   -1.551600
     19          6           0       -3.684407   -4.533000   -2.035700
     20          1           0        2.080595   -1.245503   -1.819600
     21          1           0        4.348895   -0.769605   -1.019200
     22          1           0        5.640393   -4.622805   -1.893400
     23          1           0        3.404993   -5.282304   -2.702200
     24          1           0        1.272393   -5.717603   -3.433700
     25          1           0       -1.344307   -5.816201   -3.455500
     26          1           0       -2.584705   -1.352601   -2.544100
     27          1           0       -4.843605   -0.909900   -1.655400
     28          1           0       -5.646007   -4.964799   -1.239700
     29          1           0       -3.406607   -5.585600   -2.096400
     30          6           0        3.257095   -2.335404    2.275600
     31          6           0        4.525795   -2.048705    1.808500
     32          7           0        5.334594   -2.995905    1.307600
     33          6           0        4.948694   -4.279605    1.374800
     34          6           0        3.694293   -4.649304    1.831400
     35          6           0        2.782894   -3.655904    2.223000
     36          6           0        1.379994   -3.968103    2.463600
     37          6           0        0.796193   -5.156203    2.863000
     38          6           0       -0.612907   -5.102202    2.857700
     39          6           0       -1.108006   -3.877102    2.444300
     40         16           0        0.181894   -2.785602    2.080100
     41          6           0       -2.486506   -3.484401    2.190000
     42          6           0       -2.830005   -2.151001    1.910300
     43          6           0       -4.108405   -1.845200    1.485400
     44          7           0       -5.059406   -2.781699    1.344100
     45          6           0       -4.782706   -4.043800    1.709100
     46          6           0       -3.524407   -4.430200    2.136600
     47          1           0        2.628795   -1.520104    2.637800
     48          1           0        4.890095   -1.019405    1.788600
     49          1           0        5.647893   -5.025905    0.993200
     50          1           0        3.406793   -5.700504    1.796300
     51          1           0        1.369693   -6.035403    3.158100
     52          1           0       -1.247307   -5.941102    3.145000
     53          1           0       -2.097605   -1.345001    1.980900
     54          1           0       -4.367205   -0.819800    1.214000
     55          1           0       -5.589307   -4.772699    1.607400
     56          1           0       -3.350707   -5.481000    2.367200
     57          6           0       -9.793905   -1.592297    2.861600
     58          6           0       -9.584504   -0.235197    3.216400
     59          6           0       -8.386104    0.391602    2.760600
     60          6           0       -8.094703    1.749502    3.107600
     61          6           0       -9.048203    2.453503    3.819300
     62          6           0      -10.249203    1.842703    4.244400
     63          6           0      -10.510904    0.518503    3.974600
     64          6           0       -6.797003    2.365001    2.752900
     65          6           0       -5.595503    1.723101    3.098500
     66          6           0       -4.368903    2.299100    2.806300
     67          6           0       -4.303002    3.550800    2.162800
     68          6           0       -3.031502    4.139499    1.922800
     69          6           0       -1.907202    4.600199    1.802100
     70          6           0       -0.573801    5.038598    1.721800
     71          6           0       -0.062801    6.323098    1.617300
     72          6           0        1.346199    6.360597    1.610700
     73          6           0        1.921699    5.103997    1.712300
     74          6           0        3.270098    4.712796    1.789300
     75          6           0        4.390998    4.244095    1.910800
     76          6           0        5.619398    3.567395    2.145200
     77          6           0        5.577697    2.351195    2.855700
     78          6           0        6.738397    1.630494    3.081800
     79          6           0        7.977097    2.089493    2.603800
     80          6           0        9.186697    1.261593    2.802900
     81          6           0        9.195596   -0.101307    2.365500
     82          6           0       10.311995   -0.946808    2.636700
     83          6           0       10.240795   -2.293008    2.194900
     84          6           0        9.153394   -2.731107    1.485100
     85          7           0        8.131395   -1.888507    1.171300
     86          6           0        8.145996   -0.638607    1.594900
     87          6           0       11.434296   -0.407308    3.308500
     88          6           0       11.436196    0.920992    3.670800
     89          6           0       10.319597    1.751692    3.422800
     90          6           0        8.023298    3.316293    1.927600
     91          6           0        6.862598    4.048294    1.698300
     92         16           0        0.705698    3.868597    1.805400
     93          6           0       -5.503902    4.194101    1.811800
     94          6           0       -6.729502    3.607901    2.106500
     95          6           0       -7.551104   -0.352398    1.904300
     96          7           0       -7.797805   -1.604998    1.566900
     97          6           0       -8.894505   -2.243297    2.059000
     98          1           0      -10.681705   -2.119596    3.214100
     99          1           0       -8.851302    3.492203    4.093000
    100          1           0      -10.967603    2.432404    4.817900
    101          1           0      -11.427704    0.042804    4.328100
    102          1           0       -5.622804    0.770001    3.632300
    103          1           0       -3.445303    1.794100    3.095200
    104          1           0       -0.702400    7.202798    1.550700
    105          1           0        1.937600    7.273297    1.540300
    106          1           0        4.621297    1.980795    3.229100
    107          1           0        6.687796    0.695894    3.645500
    108          1           0       11.059494   -2.982408    2.406900
    109          1           0        9.066594   -3.757707    1.127100
    110          1           0        7.309496   -0.005506    1.293000
    111          1           0       12.290595   -1.049409    3.523200
    112          1           0       12.306097    1.343291    4.178400
    113          1           0       10.339097    2.790492    3.759400
    114          1           0        8.978398    3.687793    1.549400
    115          1           0        6.912399    4.992594    1.153800
    116          1           0       -5.466401    5.159801    1.304900
    117          1           0       -7.652502    4.115502    1.817700
    118          1           0       -6.677304    0.122901    1.455200
    119          1           0       -9.028206   -3.283897    1.761100
    120          6           0      -10.239805   -2.249097   -2.176500
    121          6           0      -10.321705   -0.893297   -2.585600
    122          6           0       -9.205004   -0.049397   -2.309600
    123          6           0       -9.206603    1.321903   -2.720600
    124          6           0      -10.349603    1.820203   -3.315400
    125          6           0      -11.466804    0.991204   -3.564900
    126          6           0      -11.454904   -0.344396   -3.230900
    127          6           0       -7.997603    2.151202   -2.526700
    128          6           0       -6.762003    1.699601   -3.019400
    129          6           0       -5.602103    2.424401   -2.802800
    130          6           0       -5.641602    3.638201   -2.088300
    131          6           0       -4.413302    4.317700   -1.861800
    132          6           0       -3.292202    4.787100   -1.745900
    133          6           0       -1.943201    5.177699   -1.673700
    134          6           0       -1.366001    6.434899   -1.586800
    135          6           0        0.042699    6.395598   -1.596100
    136          6           0        0.551899    5.109197   -1.687800
    137          6           0        1.884898    4.668697   -1.763300
    138          6           0        3.009598    4.207696   -1.878300
    139          6           0        4.282898    3.620695   -2.113200
    140          6           0        5.481098    4.267295   -1.759100
    141          6           0        6.708598    3.685294   -2.052900
    142          6           0        6.781397    2.443294   -2.700900
    143          6           0        8.083097    1.839693   -3.061500
    144          6           0        8.386996    0.480893   -2.728900
    145          6           0        9.590796   -0.129607   -3.192900
    146          6           0        9.812995   -1.488808   -2.854700
    147          6           0        8.919395   -2.157707   -2.060800
    148          7           0        7.816595   -1.535506   -1.560900
    149          6           0        7.558596   -0.281006   -1.881700
    150          6           0       10.509696    0.640292   -3.943700
    151          6           0       10.235597    1.964692   -4.199800
    152          6           0        9.029397    2.559393   -3.767300
    153          6           0        5.582497    1.796495   -3.046400
    154          6           0        4.353697    2.368995   -2.755800
    155         16           0       -0.728802    3.940298   -1.756000
    156          6           0       -6.882402    4.112801   -1.627900
    157          6           0       -8.042002    3.376102   -1.846700
    158          6           0       -8.144504   -0.599198   -1.562300
    159          7           0       -8.119805   -1.858998   -1.169700
    160          6           0       -9.141606   -2.698897   -1.491500
    161          1           0      -11.058406   -2.936896   -2.394400
    162          1           0      -10.376403    2.865103   -3.632000
    163          1           0      -12.345003    1.420604   -4.052000
    164          1           0      -12.311305   -0.985596   -3.447800
    165          1           0       -6.712704    0.767401   -3.587100
    166          1           0       -4.648003    2.059000   -3.186900
    167          1           0       -1.956300    7.348999   -1.525900
    168          1           0        0.683500    7.275197   -1.539600
    169          1           0        5.439899    5.232295   -1.251000
    170          1           0        7.629698    4.196094   -1.763600
    171          1           0       10.705395   -2.003608   -3.213900
    172          1           0        9.062094   -3.200807   -1.776300
    173          1           0        6.679896    0.180294   -1.427900
    174          1           0       11.430496    0.176492   -4.302700
    175          1           0       10.947697    2.566892   -4.768000
    176          1           0        8.822398    3.598793   -4.030800
    177          1           0        5.612796    0.843395   -3.579900
    178          1           0        3.432197    1.860896   -3.045800
    179          1           0       -6.930901    5.055902   -1.081200
    180          1           0       -8.994602    3.742403   -1.457500
    181          1           0       -7.307804    0.030102   -1.253400
    182          1           0       -9.045706   -3.733397   -1.159300
 ---------------------------------------------------------------------

 SCF Done:  E(RPBE1PBE) =  -6278.51792519     A.U. after   18 cycles

 The electronic state is 1-A.
 Alpha  occ. eigenvalues --  -89.07142 -89.07130 -89.05698 -89.05668 -14.48422
 Alpha  occ. eigenvalues --  -14.48420 -14.48379 -14.48366 -14.48255 -14.48250
 Alpha  occ. eigenvalues --  -14.48189 -14.48180 -10.32356 -10.32345 -10.32274
 Alpha  occ. eigenvalues --  -10.32255 -10.32179 -10.32169 -10.32162 -10.32161
 Alpha  occ. eigenvalues --  -10.32111 -10.32089 -10.32061 -10.32044 -10.31402
 Alpha  occ. eigenvalues --  -10.31389 -10.31383 -10.31369 -10.30955 -10.30953
 Alpha  occ. eigenvalues --  -10.30952 -10.30950 -10.30762 -10.30748 -10.30681
 Alpha  occ. eigenvalues --  -10.30670 -10.30323 -10.30316 -10.30257 -10.30251
 Alpha  occ. eigenvalues --  -10.29085 -10.29077 -10.29065 -10.29064 -10.28896
 Alpha  occ. eigenvalues --  -10.28892 -10.28858 -10.28842 -10.28702 -10.28689
 Alpha  occ. eigenvalues --  -10.28654 -10.28648 -10.28645 -10.28639 -10.28633
 Alpha  occ. eigenvalues --  -10.28629 -10.28618 -10.28599 -10.28591 -10.28582
 Alpha  occ. eigenvalues --  -10.28574 -10.28570 -10.28526 -10.28522 -10.27895
 Alpha  occ. eigenvalues --  -10.27887 -10.27884 -10.27884 -10.27778 -10.27753
 Alpha  occ. eigenvalues --  -10.27674 -10.27652 -10.27619 -10.27608 -10.27586
 Alpha  occ. eigenvalues --  -10.27585 -10.27166 -10.27162 -10.27159 -10.27158
 Alpha  occ. eigenvalues --  -10.26946 -10.26942 -10.26940 -10.26935 -10.26797
 Alpha  occ. eigenvalues --  -10.26789 -10.26788 -10.26786 -10.26601 -10.26600
 Alpha  occ. eigenvalues --  -10.26568 -10.26567 -10.26548 -10.26541 -10.26538
 Alpha  occ. eigenvalues --  -10.26534 -10.26530 -10.26525 -10.26506 -10.26489
 Alpha  occ. eigenvalues --  -10.26487 -10.26475 -10.26454 -10.26437 -10.26419
 Alpha  occ. eigenvalues --  -10.26409 -10.26408 -10.26401 -10.26388 -10.26383
 Alpha  occ. eigenvalues --  -10.26347 -10.26328 -10.26313 -10.26311 -10.26234
 Alpha  occ. eigenvalues --  -10.26229  -8.07236  -8.07226  -8.05788  -8.05765
 Alpha  occ. eigenvalues --   -6.01366  -6.01357  -6.00980  -6.00970  -6.00690
 Alpha  occ. eigenvalues --   -6.00680  -5.99935  -5.99912  -5.99543  -5.99521
 Alpha  occ. eigenvalues --   -5.99209  -5.99184  -3.56983  -3.56981  -2.25026
 Alpha  occ. eigenvalues --   -2.25022  -2.24590  -2.24587  -2.20695  -2.20691
 Alpha  occ. eigenvalues --   -1.03526  -1.03515  -1.02957  -1.02948  -1.02626
 Alpha  occ. eigenvalues --   -1.02616  -1.02545  -1.02544  -0.95498  -0.95451
 Alpha  occ. eigenvalues --   -0.93735  -0.93323  -0.92584  -0.92579  -0.92524
 Alpha  occ. eigenvalues --   -0.92516  -0.90498  -0.90483  -0.90421  -0.90407
 Alpha  occ. eigenvalues --   -0.89493  -0.89329  -0.87111  -0.86916  -0.85633
 Alpha  occ. eigenvalues --   -0.85554  -0.85532  -0.85463  -0.83605  -0.83427
 Alpha  occ. eigenvalues --   -0.83209  -0.83139  -0.82831  -0.82816  -0.82737
 Alpha  occ. eigenvalues --   -0.82729  -0.82473  -0.82354  -0.82207  -0.82043
 Alpha  occ. eigenvalues --   -0.81460  -0.81303  -0.79633  -0.79466  -0.79334
 Alpha  occ. eigenvalues --   -0.79255  -0.78881  -0.78874  -0.78744  -0.78737
 Alpha  occ. eigenvalues --   -0.78529  -0.78386  -0.78181  -0.78116  -0.78066
 Alpha  occ. eigenvalues --   -0.77726  -0.76070  -0.75996  -0.73767  -0.73757
 Alpha  occ. eigenvalues --   -0.71597  -0.71361  -0.70702  -0.70692  -0.70593
 Alpha  occ. eigenvalues --   -0.70451  -0.70422  -0.70178  -0.69956  -0.69530
 Alpha  occ. eigenvalues --   -0.69183  -0.69028  -0.68836  -0.68678  -0.68171
 Alpha  occ. eigenvalues --   -0.68117  -0.67602  -0.67522  -0.67484  -0.67390
 Alpha  occ. eigenvalues --   -0.65082  -0.65013  -0.64669  -0.64557  -0.64334
 Alpha  occ. eigenvalues --   -0.64267  -0.63311  -0.63161  -0.62593  -0.62420
 Alpha  occ. eigenvalues --   -0.61982  -0.61612  -0.61576  -0.61273  -0.61111
 Alpha  occ. eigenvalues --   -0.61019  -0.58744  -0.58474  -0.58381  -0.58192
 Alpha  occ. eigenvalues --   -0.58065  -0.58030  -0.57927  -0.57547  -0.57364
 Alpha  occ. eigenvalues --   -0.57331  -0.57152  -0.57094  -0.56943  -0.56751
 Alpha  occ. eigenvalues --   -0.56698  -0.56659  -0.56125  -0.55875  -0.55826
 Alpha  occ. eigenvalues --   -0.55677  -0.55639  -0.55462  -0.55356  -0.55283
 Alpha  occ. eigenvalues --   -0.54519  -0.54391  -0.53664  -0.53379  -0.51908
 Alpha  occ. eigenvalues --   -0.51851  -0.51839  -0.51682  -0.51591  -0.51446
 Alpha  occ. eigenvalues --   -0.51383  -0.51322  -0.51271  -0.51142  -0.50686
 Alpha  occ. eigenvalues --   -0.50636  -0.50593  -0.50583  -0.50264  -0.50220
 Alpha  occ. eigenvalues --   -0.50060  -0.49950  -0.49418  -0.49298  -0.49237
 Alpha  occ. eigenvalues --   -0.49183  -0.49120  -0.48835  -0.48741  -0.48665
 Alpha  occ. eigenvalues --   -0.48652  -0.48611  -0.48531  -0.48406  -0.47754
 Alpha  occ. eigenvalues --   -0.47725  -0.47677  -0.47649  -0.47440  -0.47074
 Alpha  occ. eigenvalues --   -0.47000  -0.46793  -0.46783  -0.46690  -0.46545
 Alpha  occ. eigenvalues --   -0.46463  -0.46432  -0.46126  -0.45969  -0.45804
 Alpha  occ. eigenvalues --   -0.45779  -0.45751  -0.45563  -0.45470  -0.45376
 Alpha  occ. eigenvalues --   -0.45346  -0.45306  -0.44826  -0.44490  -0.44380
 Alpha  occ. eigenvalues --   -0.44287  -0.44261  -0.44213  -0.44049  -0.43663
 Alpha  occ. eigenvalues --   -0.43573  -0.43367  -0.43235  -0.43044  -0.42983
 Alpha  occ. eigenvalues --   -0.42965  -0.42751  -0.42619  -0.42576  -0.42370
 Alpha  occ. eigenvalues --   -0.42208  -0.42136  -0.42020  -0.41879  -0.41668
 Alpha  occ. eigenvalues --   -0.41631  -0.41616  -0.41516  -0.41503  -0.41384
 Alpha  occ. eigenvalues --   -0.41075  -0.40603  -0.40523  -0.40034  -0.39988
 Alpha  occ. eigenvalues --   -0.39964  -0.39884  -0.39385  -0.38722  -0.38518
 Alpha  occ. eigenvalues --   -0.38485  -0.38440  -0.38278  -0.38230  -0.38155
 Alpha  occ. eigenvalues --   -0.37988  -0.37940  -0.37823  -0.37818  -0.37779
 Alpha  occ. eigenvalues --   -0.37516  -0.37451  -0.37336  -0.36801  -0.36485
 Alpha  occ. eigenvalues --   -0.36149  -0.36107  -0.35923  -0.35439  -0.35230
 Alpha  occ. eigenvalues --   -0.34823  -0.34418  -0.34343  -0.34227  -0.34016
 Alpha  occ. eigenvalues --   -0.33924  -0.33902  -0.33510  -0.33386  -0.33298
 Alpha  occ. eigenvalues --   -0.33088  -0.32721  -0.32689  -0.32062  -0.31873
 Alpha  occ. eigenvalues --   -0.31267  -0.31240  -0.31217  -0.31050  -0.30987
 Alpha  occ. eigenvalues --   -0.30955  -0.30851  -0.30676  -0.30389  -0.30169
 Alpha  occ. eigenvalues --   -0.29801  -0.29789  -0.29632  -0.29413  -0.29162
 Alpha  occ. eigenvalues --   -0.28938  -0.28926  -0.28836  -0.28803  -0.28399
 Alpha  occ. eigenvalues --   -0.28108  -0.27483  -0.26977  -0.26669  -0.26618
 Alpha  occ. eigenvalues --   -0.26433  -0.25827  -0.25666  -0.22617  -0.22563
 Alpha virt. eigenvalues --   -0.12006  -0.11253  -0.10046  -0.09660  -0.09614
 Alpha virt. eigenvalues --   -0.09175  -0.08819  -0.08508  -0.08277  -0.07970
 Alpha virt. eigenvalues --   -0.07640  -0.06677  -0.06593  -0.06346  -0.06264

 Mulliken charges:
               1
     1  Pd   0.498676
     2  Pd   0.498237
     3  C   -0.066184
     4  C    0.147008
     5  N   -0.325136
     6  C    0.152331
     7  C   -0.050993
     8  C    0.110771
     9  C   -0.104173
    10  C   -0.002741
    11  C    0.014161
    12  C   -0.104861
    13  S    0.161834
    14  C    0.082724
    15  C   -0.048943
    16  C    0.143646
    17  N   -0.320266
    18  C    0.150979
    19  C   -0.034666
    20  H    0.074254
    21  H    0.100880
    22  H    0.105514
    23  H    0.068831
    24  H    0.064021
    25  H    0.063234
    26  H    0.072237
    27  H    0.101011
    28  H    0.104721
    29  H    0.070991
    30  C   -0.047541
    31  C    0.141879
    32  N   -0.318569
    33  C    0.151290
    34  C   -0.034074
    35  C    0.081654
    36  C   -0.106884
    37  C    0.014095
    38  C   -0.002415
    39  C   -0.105926
    40  S    0.166143
    41  C    0.109095
    42  C   -0.066064
    43  C    0.149106
    44  N   -0.323139
    45  C    0.153436
    46  C   -0.050299
    47  H    0.071776
    48  H    0.098848
    49  H    0.105314
    50  H    0.070967
    51  H    0.063299
    52  H    0.064210
    53  H    0.073422
    54  H    0.095943
    55  H    0.105852
    56  H    0.068838
    57  C   -0.031283
    58  C    0.029694
    59  C   -0.023726
    60  C    0.053525
    61  C   -0.024674
    62  C    0.003912
    63  C   -0.005213
    64  C   -0.048035
    65  C   -0.047570
    66  C    0.006923
    67  C   -0.086207
    68  C   -0.022797
    69  C    0.038299
    70  C   -0.211277
    71  C    0.061849
    72  C    0.025273
    73  C   -0.195862
    74  C    0.046217
    75  C   -0.034964
    76  C   -0.080615
    77  C    0.004891
    78  C   -0.048833
    79  C   -0.055818
    80  C    0.051743
    81  C   -0.024372
    82  C    0.031192
    83  C   -0.032965
    84  C    0.136898
    85  N   -0.317237
    86  C    0.139351
    87  C   -0.005157
    88  C    0.002847
    89  C   -0.022673
    90  C   -0.003187
    91  C    0.011054
    92  S    0.188105
    93  C    0.011597
    94  C   -0.008270
    95  C    0.129875
    96  N   -0.316842
    97  C    0.139630
    98  H    0.061333
    99  H    0.047524
   100  H    0.060652
   101  H    0.047399
   102  H    0.053267
   103  H    0.040534
   104  H    0.048980
   105  H    0.049081
   106  H    0.041434
   107  H    0.053952
   108  H    0.061142
   109  H    0.097149
   110  H    0.114162
   111  H    0.047181
   112  H    0.060749
   113  H    0.046479
   114  H    0.041944
   115  H    0.042675
   116  H    0.041037
   117  H    0.041226
   118  H    0.109072
   119  H    0.096860
   120  C   -0.032549
   121  C    0.030789
   122  C   -0.025029
   123  C    0.052683
   124  C   -0.023036
   125  C    0.003056
   126  C   -0.005231
   127  C   -0.053069
   128  C   -0.049286
   129  C    0.005163
   130  C   -0.080730
   131  C   -0.035186
   132  C    0.047289
   133  C   -0.196975
   134  C    0.024180
   135  C    0.061157
   136  C   -0.211126
   137  C    0.040504
   138  C   -0.024199
   139  C   -0.086010
   140  C    0.011378
   141  C   -0.009817
   142  C   -0.046922
   143  C    0.053625
   144  C   -0.024626
   145  C    0.029584
   146  C   -0.031152
   147  C    0.139853
   148  N   -0.316119
   149  C    0.132599
   150  C   -0.005401
   151  C    0.004155
   152  C   -0.025278
   153  C   -0.045072
   154  C    0.005916
   155  S    0.189481
   156  C    0.010589
   157  C   -0.004802
   158  C    0.139799
   159  N   -0.316205
   160  C    0.136916
   161  H    0.061209
   162  H    0.046657
   163  H    0.060742
   164  H    0.047209
   165  H    0.053933
   166  H    0.041314
   167  H    0.049335
   168  H    0.048999
   169  H    0.041361
   170  H    0.041475
   171  H    0.061231
   172  H    0.097392
   173  H    0.106406
   174  H    0.047375
   175  H    0.060533
   176  H    0.047667
   177  H    0.053320
   178  H    0.039875
   179  H    0.043163
   180  H    0.042050
   181  H    0.112493
   182  H    0.097882
 Sum of Mulliken charges =   4.00000

 Dipole moment (field-independent basis, Debye):
    X=              0.0930    Y=            -35.8798    Z=             -0.4034  Tot=             35.8822
 Quadrupole moment (field-independent basis, Debye-Ang):
   XX=            382.4804   YY=           -436.4594   ZZ=           -618.8679
   XY=              0.6471   XZ=            -17.1029   YZ=              2.8701

 Normal termination of Gaussian 16 at Fri Jun  2 06:52:15 2023.
