 Gaussian 16, Revision C.01,
 Gaussian 16:  ES64L-G16RevC.01  3-Jul-2019

 ----------------------------------------------------------------------
 #P PBE1PBE/Def2SVP SP SCF=(YQC,MaxCycle=900) int=(Grid=Superfinegrid)
 EmpiricalDispersion=GD3BJ SCRF=(PCM,Solvent=DiMethylSulfoxide)
 ----------------------------------------------------------------------

 --------
 _s_4c3_a
 --------
 Symbolic Z-matrix:
 Charge =  4 Multiplicity = 1

                         Standard orientation:
 ---------------------------------------------------------------------
 Center     Atomic      Atomic             Coordinates (Angstroms)
 Number     Number       Type             X           Y           Z
 ---------------------------------------------------------------------
      1         46           0       -6.190585   -0.063538    0.023188
      2         46           0        7.971232   -0.080271   -0.098538
      3          6           0       -2.958763   -0.907177   -4.761472
      4          6           0       -3.558423    0.143808   -4.760363
      5          6           0       -4.370058    1.295476   -4.831072
      6          6           0       -4.366232    2.099526   -5.954125
      7          6           0       -5.288985    3.143440   -6.093085
      8          6           0       -6.241455    3.383879   -5.134216
      9          6           0       -6.271528    2.602270   -3.965050
     10          6           0       -7.235974    2.764119   -2.944684
     11          6           0       -7.201871    1.965347   -1.837538
     12          7           0       -6.230492    1.035549   -1.649980
     13          6           0       -5.316643    0.850947   -2.585301
     14          6           0       -5.303253    1.572623   -3.787326
     15          1           0       -3.660016    1.901276   -6.745646
     16          1           0       -5.261647    3.748325   -6.986681
     17          1           0       -6.975456    4.163190   -5.266059
     18          1           0       -8.003336    3.513784   -3.054024
     19          1           0       -7.948633    2.040591   -1.053434
     20          1           0       -4.545994    0.105760   -2.398608
     21          6           0       -2.358923   -2.184452   -4.837499
     22          6           0       -3.139756   -3.225793   -5.372480
     23          6           0       -2.629837   -4.495020   -5.530095
     24          6           0       -1.316602   -4.719876   -5.139685
     25          7           0       -0.575135   -5.869962   -5.205834
     26          6           0        0.682658   -5.623772   -4.731515
     27          6           0        1.772047   -6.482380   -4.635235
     28          6           0        2.947300   -5.977384   -4.128047
     29          6           0        3.044258   -4.636381   -3.707968
     30          6           0        1.949668   -3.775740   -3.795284
     31          6           0        0.765542   -4.269406   -4.315520
     32          6           0       -0.523704   -3.685763   -4.582561
     33          6           0       -1.047347   -2.410289   -4.431354
     34          1           0       -4.152234   -3.011753   -5.678859
     35          1           0       -3.227777   -5.283328   -5.959601
     36          1           0       -0.887124   -6.743202   -5.597509
     37          1           0        1.702607   -7.510329   -4.956674
     38          1           0        3.815648   -6.613470   -4.046896
     39          1           0        2.034949   -2.748814   -3.478146
     40          1           0       -0.453255   -1.607622   -4.025198
     41          6           0        4.277000   -4.174304   -3.214113
     42          6           0        5.353903   -3.802592   -2.805957
     43          6           0        6.608539   -3.366909   -2.349429
     44          6           0        7.780632   -4.089077   -2.623657
     45          6           0        8.991855   -3.607406   -2.164101
     46          6           0        9.021812   -2.425084   -1.438639
     47          7           0        7.904122   -1.744980   -1.171558
     48          6           0        6.727307   -2.187951   -1.606803
     49          1           0        7.725372   -5.005074   -3.190789
     50          1           0        9.907575   -4.139674   -2.364422
     51          1           0        9.951368   -2.008511   -1.058772
     52          1           0        5.849658   -1.591067   -1.363099
     53          6           0       -2.834591    4.870989   -0.512148
     54          6           0       -3.469978    4.736130    0.508947
     55          6           0       -4.288439    4.706540    1.657213
     56          6           0       -4.258468    5.754572    2.557209
     57          6           0       -5.159485    5.812753    3.625923
     58          6           0       -6.117464    4.845483    3.799842
     59          6           0       -6.182958    3.757446    2.911304
     60          6           0       -7.169060    2.748710    2.996859
     61          6           0       -7.171726    1.718481    2.101638
     62          7           0       -6.219786    1.598000    1.140378
     63          6           0       -5.294658    2.531646    1.016036
     64          6           0       -5.239183    3.660015    1.848078
     65          1           0       -3.544733    6.550904    2.413974
     66          1           0       -5.113679    6.651019    4.304433
     67          1           0       -6.832811    4.912215    4.604375
     68          1           0       -7.921796    2.806535    3.766779
     69          1           0       -7.934769    0.945668    2.117627
     70          1           0       -4.551303    2.401900    0.232580
     71          6           0       -2.201547    5.115767   -1.751741
     72          6           0       -2.919376    5.884357   -2.687397
     73          6           0       -2.382471    6.203765   -3.914476
     74          6           0       -1.103380    5.745657   -4.201258
     75          7           0       -0.347834    5.932728   -5.328604
     76          6           0        0.867368    5.331553   -5.162068
     77          6           0        1.953769    5.287242   -6.028825
     78          6           0        3.086193    4.628536   -5.608699
     79          6           0        3.143776    4.009998   -4.344290
     80          6           0        2.049450    4.040786   -3.479039
     81          6           0        0.907171    4.708239   -3.887206
     82          6           0       -0.366508    4.973776   -3.268647
     83          6           0       -0.920619    4.653408   -2.037417
     84          1           0       -3.906640    6.233266   -2.425419
     85          1           0       -2.935332    6.798725   -4.624958
     86          1           0       -0.627218    6.466993   -6.134677
     87          1           0        1.914881    5.763469   -6.996626
     88          1           0        3.951980    4.582703   -6.251726
     89          1           0        2.104315    3.568216   -2.511557
     90          1           0       -0.372266    4.073722   -1.312497
     91          6           0        4.342564    3.383609   -3.960880
     92          6           0        5.398789    2.876295   -3.658166
     93          6           0        6.633761    2.318704   -3.290016
     94          6           0        7.798557    2.556773   -4.036602
     95          6           0        8.994432    2.008721   -3.612872
     96          6           0        9.017663    1.236577   -2.460243
     97          7           0        7.906369    1.003047   -1.757830
     98          6           0        6.743299    1.517908   -2.148865
     99          1           0        7.750099    3.166148   -4.925523
    100          1           0        9.904202    2.178837   -4.165378
    101          1           0        9.936110    0.791659   -2.085830
    102          1           0        5.869334    1.294323   -1.539030
    103          6           0       -2.691600    0.818555    4.600026
    104          6           0       -3.243192   -0.258134    4.618977
    105          6           0       -3.989705   -1.451248    4.707856
    106          6           0       -3.850717   -2.301561    5.787061
    107          6           0       -4.694198   -3.407770    5.941622
    108          6           0       -5.699099   -3.669192    5.043794
    109          6           0       -5.870620   -2.837420    3.922988
    110          6           0       -6.902016   -3.013086    2.972710
    111          6           0       -7.001264   -2.166323    1.906180
    112          7           0       -6.104325   -1.169891    1.692532
    113          6           0       -5.137146   -0.965114    2.567696
    114          6           0       -4.986248   -1.738149    3.727539
    115          1           0       -3.099616   -2.091352    6.532521
    116          1           0       -4.566939   -4.044426    6.803895
    117          1           0       -6.369766   -4.501286    5.189662
    118          1           0       -7.612636   -3.813751    3.102427
    119          1           0       -7.799497   -2.252987    1.175879
    120          1           0       -4.432451   -0.161776    2.362586
    121          6           0       -2.123048    2.110985    4.647296
    122          6           0       -2.929145    3.156603    5.133768
    123          6           0       -2.438318    4.436497    5.266392
    124          6           0       -1.120713    4.669119    4.895455
    125          7           0       -0.394353    5.829771    4.943463
    126          6           0        0.874261    5.587381    4.496295
    127          6           0        1.955244    6.455919    4.392506
    128          6           0        3.143033    5.952906    3.912432
    129          6           0        3.260974    4.603608    3.526839
    130          6           0        2.176416    3.731388    3.625937
    131          6           0        0.980537    4.223648    4.118779
    132          6           0       -0.304896    3.630604    4.381464
    133          6           0       -0.806859    2.343869    4.260054
    134          1           0       -3.945088    2.938565    5.425471
    135          1           0       -3.055256    5.228116    5.661551
    136          1           0       -0.724114    6.709706    5.304498
    137          1           0        1.869888    7.490975    4.686155
    138          1           0        4.004209    6.597872    3.824674
    139          1           0        2.277824    2.697869    3.336499
    140          1           0       -0.193957    1.538027    3.889688
    141          6           0        4.496524    4.137298    3.044609
    142          6           0        5.565498    3.746082    2.634116
    143          6           0        6.797408    3.273155    2.153623
    144          6           0        7.994849    3.974966    2.361306
    145          6           0        9.175466    3.452577    1.867231
    146          6           0        9.150142    2.252082    1.171943
    147          7           0        8.008323    1.590072    0.970161
    148          6           0        6.861083    2.070715    1.442455
    149          1           0        7.983057    4.907670    2.903394
    150          1           0       10.110130    3.968563    2.016089
    151          1           0       10.053117    1.805907    0.763872
    152          1           0        5.961173    1.486628    1.254256
    153          6           0       -2.715608   -4.702414    0.802142
    154          6           0       -3.283628   -4.695437   -0.266137
    155          6           0       -4.055636   -4.763536   -1.444216
    156          6           0       -3.944811   -5.834826   -2.308575
    157          6           0       -4.819455   -5.975432   -3.392067
    158          6           0       -5.830094   -5.073601   -3.613965
    159          6           0       -5.973000   -3.959917   -2.767428
    160          6           0       -7.009138   -3.007773   -2.899942
    161          6           0       -7.076415   -1.946179   -2.044041
    162          7           0       -6.141449   -1.736468   -1.081708
    163          6           0       -5.171398   -2.616601   -0.914463
    164          6           0       -5.053433   -3.774716   -1.695756
    165          1           0       -3.192025   -6.585769   -2.125874
    166          1           0       -4.713017   -6.831358   -4.040945
    167          1           0       -6.526891   -5.210871   -4.425811
    168          1           0       -7.748610   -3.132226   -3.674794
    169          1           0       -7.878743   -1.216987   -2.096274
    170          1           0       -4.436835   -2.416674   -0.137429
    171          6           0       -2.136129   -4.781375    2.088296
    172          6           0       -2.935974   -5.294507    3.126094
    173          6           0       -2.438934   -5.456880    4.400112
    174          6           0       -1.120559   -5.089823    4.634687
    175          7           0       -0.388543   -5.163312    5.790534
    176          6           0        0.878462   -4.709098    5.552307
    177          6           0        1.963505   -4.623694    6.417736
    178          6           0        3.148654   -4.131949    5.919713
    179          6           0        3.259614   -3.716510    4.578743
    180          6           0        2.170594   -3.795773    3.710188
    181          6           0        0.977480   -4.300343    4.197038
    182          6           0       -0.310549   -4.550713    3.604480
    183          6           0       -0.819168   -4.398503    2.323470
    184          1           0       -3.952325   -5.582740    2.905705
    185          1           0       -3.051353   -5.871748    5.185131
    186          1           0       -0.713594   -5.544937    6.663495
    187          1           0        1.883392   -4.940545    7.446399
    188          1           0        4.012937   -4.058552    6.562112
    189          1           0        2.266763   -3.482973    2.682922
    190          1           0       -0.210834   -4.007814    1.523873
    191          6           0        4.494006   -3.228523    4.115079
    192          6           0        5.562126   -2.817041    3.722720
    193          6           0        6.795729   -2.346142    3.244399
    194          6           0        7.999620   -2.600456    3.919266
    195          6           0        9.182933   -2.123050    3.387505
    196          6           0        9.154070   -1.400856    2.203185
    197          7           0        8.006045   -1.152798    1.568087
    198          6           0        6.855438   -1.604609    2.060079
    199          1           0        7.990545   -3.165755    4.838017
    200          1           0       10.122382   -2.307556    3.882725
    201          1           0       10.059829   -1.008252    1.748497
    202          1           0        5.949822   -1.375788    1.499912
 ---------------------------------------------------------------------

 SCF Done:  E(RPBE1PBE) =  -5516.31670130     a.u. after   22 cycles
 SCF Done:  E(RPBE1PBE) =  -5516.31697000     A.U. after    9 cycles

 The electronic state is 1-A.
 Alpha  occ. eigenvalues --  -14.48867 -14.48859 -14.48858 -14.48855 -14.48422
 Alpha  occ. eigenvalues --  -14.48407 -14.48382 -14.48367 -14.45570 -14.45562
 Alpha  occ. eigenvalues --  -14.45554 -14.45549 -10.32297 -10.32235 -10.32233
 Alpha  occ. eigenvalues --  -10.32218 -10.32202 -10.32192 -10.32191 -10.32189
 Alpha  occ. eigenvalues --  -10.31733 -10.31731 -10.31728 -10.31725 -10.30870
 Alpha  occ. eigenvalues --  -10.30867 -10.30859 -10.30848 -10.30538 -10.30536
 Alpha  occ. eigenvalues --  -10.30533 -10.30529 -10.29631 -10.29608 -10.29607
 Alpha  occ. eigenvalues --  -10.29603 -10.29602 -10.29598 -10.29595 -10.29590
 Alpha  occ. eigenvalues --  -10.29472 -10.29467 -10.29457 -10.29442 -10.29043
 Alpha  occ. eigenvalues --  -10.29040 -10.29037 -10.29034 -10.29034 -10.29031
 Alpha  occ. eigenvalues --  -10.29017 -10.28995 -10.28926 -10.28878 -10.28862
 Alpha  occ. eigenvalues --  -10.28844 -10.28065 -10.28058 -10.28055 -10.28052
 Alpha  occ. eigenvalues --  -10.27742 -10.27739 -10.27737 -10.27719 -10.27279
 Alpha  occ. eigenvalues --  -10.27274 -10.27271 -10.27269 -10.27229 -10.27220
 Alpha  occ. eigenvalues --  -10.27215 -10.27209 -10.27114 -10.27093 -10.27093
 Alpha  occ. eigenvalues --  -10.27075 -10.27048 -10.27042 -10.27037 -10.27023
 Alpha  occ. eigenvalues --  -10.26775 -10.26760 -10.26717 -10.26693 -10.26400
 Alpha  occ. eigenvalues --  -10.26394 -10.26390 -10.26387 -10.26352 -10.26334
 Alpha  occ. eigenvalues --  -10.26331 -10.26324 -10.26217 -10.26183 -10.26176
 Alpha  occ. eigenvalues --  -10.26175 -10.26054 -10.26050 -10.26047 -10.26031
 Alpha  occ. eigenvalues --  -10.25934 -10.25928 -10.25926 -10.25921 -10.25874
 Alpha  occ. eigenvalues --  -10.25848 -10.25841 -10.25834 -10.25833 -10.25800
 Alpha  occ. eigenvalues --  -10.25797 -10.25795 -10.25788 -10.25778 -10.25771
 Alpha  occ. eigenvalues --  -10.25752 -10.25627 -10.25623 -10.25621 -10.25617
 Alpha  occ. eigenvalues --  -10.25522 -10.25520 -10.25508 -10.25508 -10.25459
 Alpha  occ. eigenvalues --  -10.25448 -10.25434 -10.25417 -10.25396 -10.25393
 Alpha  occ. eigenvalues --  -10.25388 -10.25375  -3.57475  -3.57163  -2.25405
 Alpha  occ. eigenvalues --   -2.25376  -2.25064  -2.25023  -2.21182  -2.20791
 Alpha  occ. eigenvalues --   -1.04346  -1.03758  -1.03608  -1.03584  -1.03529
 Alpha  occ. eigenvalues --   -1.03253  -1.03239  -1.03228  -1.03227  -1.02996
 Alpha  occ. eigenvalues --   -1.02955  -1.02782  -0.92646  -0.92543  -0.92529
 Alpha  occ. eigenvalues --   -0.92517  -0.90322  -0.90320  -0.90315  -0.90309
 Alpha  occ. eigenvalues --   -0.89959  -0.89951  -0.89950  -0.89939  -0.88548
 Alpha  occ. eigenvalues --   -0.88310  -0.88271  -0.88267  -0.85862  -0.85837
 Alpha  occ. eigenvalues --   -0.85820  -0.85810  -0.84364  -0.84242  -0.84231
 Alpha  occ. eigenvalues --   -0.84144  -0.83216  -0.83168  -0.83155  -0.83146
 Alpha  occ. eigenvalues --   -0.82958  -0.82849  -0.82819  -0.82805  -0.82223
 Alpha  occ. eigenvalues --   -0.82207  -0.82191  -0.82180  -0.80977  -0.80953
 Alpha  occ. eigenvalues --   -0.80943  -0.80930  -0.79693  -0.79669  -0.79665
 Alpha  occ. eigenvalues --   -0.79644  -0.77420  -0.77395  -0.77383  -0.77351
 Alpha  occ. eigenvalues --   -0.76101  -0.76062  -0.76058  -0.75999  -0.75334
 Alpha  occ. eigenvalues --   -0.75317  -0.75311  -0.75297  -0.71462  -0.71375
 Alpha  occ. eigenvalues --   -0.71368  -0.71176  -0.71157  -0.71089  -0.70994
 Alpha  occ. eigenvalues --   -0.70989  -0.69688  -0.69671  -0.69661  -0.69657
 Alpha  occ. eigenvalues --   -0.69443  -0.69197  -0.69018  -0.69012  -0.68905
 Alpha  occ. eigenvalues --   -0.68862  -0.68740  -0.68728  -0.67490  -0.67450
 Alpha  occ. eigenvalues --   -0.67434  -0.67431  -0.65774  -0.65716  -0.65713
 Alpha  occ. eigenvalues --   -0.65710  -0.64499  -0.64490  -0.64475  -0.64468
 Alpha  occ. eigenvalues --   -0.62108  -0.61929  -0.61914  -0.61910  -0.61828
 Alpha  occ. eigenvalues --   -0.61265  -0.60676  -0.60671  -0.60310  -0.59848
 Alpha  occ. eigenvalues --   -0.59751  -0.59738  -0.58278  -0.58119  -0.58077
 Alpha  occ. eigenvalues --   -0.58070  -0.57996  -0.57837  -0.57832  -0.57799
 Alpha  occ. eigenvalues --   -0.57658  -0.57540  -0.57476  -0.57474  -0.57075
 Alpha  occ. eigenvalues --   -0.57009  -0.56235  -0.56230  -0.56210  -0.55999
 Alpha  occ. eigenvalues --   -0.55938  -0.55930  -0.55672  -0.55666  -0.55660
 Alpha  occ. eigenvalues --   -0.55649  -0.54852  -0.54621  -0.54618  -0.54399
 Alpha  occ. eigenvalues --   -0.53082  -0.52981  -0.52975  -0.52915  -0.52094
 Alpha  occ. eigenvalues --   -0.51912  -0.51857  -0.51837  -0.51791  -0.51126
 Alpha  occ. eigenvalues --   -0.51045  -0.50859  -0.50728  -0.50701  -0.50698
 Alpha  occ. eigenvalues --   -0.50691  -0.50690  -0.50283  -0.50266  -0.50222
 Alpha  occ. eigenvalues --   -0.49881  -0.49604  -0.49553  -0.49543  -0.49500
 Alpha  occ. eigenvalues --   -0.49244  -0.49222  -0.48852  -0.48836  -0.48716
 Alpha  occ. eigenvalues --   -0.48331  -0.48199  -0.48192  -0.47974  -0.47915
 Alpha  occ. eigenvalues --   -0.47883  -0.47861  -0.47858  -0.47788  -0.47742
 Alpha  occ. eigenvalues --   -0.47713  -0.47691  -0.47669  -0.47622  -0.47277
 Alpha  occ. eigenvalues --   -0.47270  -0.47266  -0.47259  -0.47072  -0.46834
 Alpha  occ. eigenvalues --   -0.46826  -0.46820  -0.46814  -0.46783  -0.46591
 Alpha  occ. eigenvalues --   -0.46582  -0.45849  -0.45480  -0.45466  -0.45461
 Alpha  occ. eigenvalues --   -0.45451  -0.45206  -0.44330  -0.44320  -0.43867
 Alpha  occ. eigenvalues --   -0.43674  -0.43600  -0.43416  -0.43390  -0.43385
 Alpha  occ. eigenvalues --   -0.43270  -0.42988  -0.42971  -0.42950  -0.42841
 Alpha  occ. eigenvalues --   -0.42665  -0.42633  -0.42013  -0.41935  -0.41843
 Alpha  occ. eigenvalues --   -0.41821  -0.41779  -0.41691  -0.41494  -0.41469
 Alpha  occ. eigenvalues --   -0.41449  -0.41436  -0.41416  -0.41330  -0.41262
 Alpha  occ. eigenvalues --   -0.40853  -0.40089  -0.40017  -0.40000  -0.39983
 Alpha  occ. eigenvalues --   -0.39529  -0.39412  -0.39407  -0.39302  -0.39195
 Alpha  occ. eigenvalues --   -0.39123  -0.38308  -0.38285  -0.38256  -0.38227
 Alpha  occ. eigenvalues --   -0.38172  -0.38159  -0.38027  -0.37922  -0.37907
 Alpha  occ. eigenvalues --   -0.37899  -0.37174  -0.37142  -0.36783  -0.36766
 Alpha  occ. eigenvalues --   -0.36706  -0.36701  -0.36674  -0.36481  -0.36440
 Alpha  occ. eigenvalues --   -0.35697  -0.35458  -0.34453  -0.34426  -0.34044
 Alpha  occ. eigenvalues --   -0.34015  -0.33799  -0.33709  -0.33677  -0.33641
 Alpha  occ. eigenvalues --   -0.33510  -0.33505  -0.33481  -0.32672  -0.32553
 Alpha  occ. eigenvalues --   -0.32482  -0.32412  -0.31991  -0.31807  -0.31557
 Alpha  occ. eigenvalues --   -0.31524  -0.31429  -0.31386  -0.31107  -0.31053
 Alpha  occ. eigenvalues --   -0.31009  -0.30968  -0.30842  -0.30753  -0.30625
 Alpha  occ. eigenvalues --   -0.29978  -0.29886  -0.29861  -0.29848  -0.28918
 Alpha  occ. eigenvalues --   -0.28829  -0.27396  -0.27336  -0.27313  -0.27233
 Alpha  occ. eigenvalues --   -0.26224  -0.26056  -0.26020  -0.25882  -0.24722
 Alpha  occ. eigenvalues --   -0.24677  -0.24657  -0.24601  -0.23065  -0.23007
 Alpha  occ. eigenvalues --   -0.22999  -0.22946
 Alpha virt. eigenvalues --   -0.10019  -0.09897  -0.09873  -0.09654  -0.08712
 Alpha virt. eigenvalues --   -0.08523  -0.08490  -0.07858  -0.07163  -0.07090
 Alpha virt. eigenvalues --   -0.06954  -0.06878  -0.06383  -0.06339  -0.06105

 Mulliken charges:
               1
     1  Pd   0.465631
     2  Pd   0.491577
     3  C    0.031399
     4  C   -0.100321
     5  C   -0.010031
     6  C    0.007115
     7  C    0.013207
     8  C    0.005511
     9  C    0.038273
    10  C   -0.018952
    11  C    0.141954
    12  N   -0.337727
    13  C    0.176389
    14  C   -0.018929
    15  H    0.040100
    16  H    0.055179
    17  H    0.040395
    18  H    0.053341
    19  H    0.105288
    20  H    0.095844
    21  C   -0.088581
    22  C   -0.000390
    23  C   -0.033995
    24  C    0.115249
    25  N   -0.121822
    26  C    0.118778
    27  C   -0.045847
    28  C    0.003881
    29  C   -0.083883
    30  C   -0.032255
    31  C    0.020208
    32  C    0.023350
    33  C   -0.031247
    34  H    0.031320
    35  H    0.022622
    36  H    0.166637
    37  H    0.026569
    38  H    0.033669
    39  H    0.021918
    40  H    0.019542
    41  C    0.012553
    42  C   -0.030291
    43  C   -0.117381
    44  C    0.102197
    45  C   -0.034657
    46  C    0.148808
    47  N   -0.309647
    48  C    0.176572
    49  H    0.061344
    50  H    0.070044
    51  H    0.106742
    52  H    0.092483
    53  C    0.025325
    54  C   -0.095524
    55  C   -0.013040
    56  C    0.018369
    57  C    0.006693
    58  C    0.002378
    59  C    0.035856
    60  C   -0.016383
    61  C    0.140282
    62  N   -0.338163
    63  C    0.172713
    64  C   -0.011557
    65  H    0.038031
    66  H    0.057215
    67  H    0.039788
    68  H    0.053016
    69  H    0.108642
    70  H    0.095354
    71  C   -0.089336
    72  C    0.001103
    73  C   -0.049136
    74  C    0.118497
    75  N   -0.120178
    76  C    0.118051
    77  C   -0.044919
    78  C    0.003584
    79  C   -0.083693
    80  C   -0.031256
    81  C    0.020551
    82  C    0.020640
    83  C   -0.025974
    84  H    0.032327
    85  H    0.025356
    86  H    0.166961
    87  H    0.026701
    88  H    0.033812
    89  H    0.021943
    90  H    0.019993
    91  C    0.012292
    92  C   -0.029763
    93  C   -0.116826
    94  C    0.101710
    95  C   -0.034501
    96  C    0.148804
    97  N   -0.310428
    98  C    0.175937
    99  H    0.061364
   100  H    0.069914
   101  H    0.106837
   102  H    0.091089
   103  C    0.026559
   104  C   -0.095818
   105  C   -0.011153
   106  C    0.010889
   107  C    0.016435
   108  C    0.001443
   109  C    0.039003
   110  C   -0.018629
   111  C    0.140634
   112  N   -0.338781
   113  C    0.173156
   114  C   -0.016038
   115  H    0.037789
   116  H    0.056062
   117  H    0.039149
   118  H    0.052988
   119  H    0.106200
   120  H    0.096142
   121  C   -0.087282
   122  C   -0.004215
   123  C   -0.039032
   124  C    0.120107
   125  N   -0.121811
   126  C    0.119987
   127  C   -0.046279
   128  C    0.004868
   129  C   -0.083787
   130  C   -0.033834
   131  C    0.020094
   132  C    0.025044
   133  C   -0.032403
   134  H    0.031948
   135  H    0.023482
   136  H    0.166905
   137  H    0.026679
   138  H    0.033675
   139  H    0.022052
   140  H    0.019903
   141  C    0.012569
   142  C   -0.029694
   143  C   -0.116401
   144  C    0.103146
   145  C   -0.034984
   146  C    0.149143
   147  N   -0.309686
   148  C    0.173203
   149  H    0.061351
   150  H    0.070069
   151  H    0.106706
   152  H    0.092360
   153  C    0.029286
   154  C   -0.098147
   155  C   -0.011617
   156  C    0.010208
   157  C    0.019867
   158  C    0.000188
   159  C    0.039542
   160  C   -0.018594
   161  C    0.141184
   162  N   -0.339055
   163  C    0.173624
   164  C   -0.016746
   165  H    0.037585
   166  H    0.055576
   167  H    0.038931
   168  H    0.052715
   169  H    0.106075
   170  H    0.095067
   171  C   -0.088389
   172  C   -0.000792
   173  C   -0.035197
   174  C    0.116836
   175  N   -0.122045
   176  C    0.119964
   177  C   -0.046479
   178  C    0.004861
   179  C   -0.083782
   180  C   -0.034034
   181  C    0.020518
   182  C    0.023198
   183  C   -0.031518
   184  H    0.031337
   185  H    0.022611
   186  H    0.166712
   187  H    0.026652
   188  H    0.033560
   189  H    0.022052
   190  H    0.019728
   191  C    0.012686
   192  C   -0.030084
   193  C   -0.117154
   194  C    0.103224
   195  C   -0.035353
   196  C    0.149284
   197  N   -0.309360
   198  C    0.175357
   199  H    0.061262
   200  H    0.070067
   201  H    0.105930
   202  H    0.092560
 Sum of Mulliken charges =   4.00000

 Dipole moment (field-independent basis, Debye):
    X=              9.9102    Y=             -0.4272    Z=             -0.4197  Tot=              9.9283
 Quadrupole moment (field-independent basis, Debye-Ang):
   XX=            210.6959   YY=           -420.6655   ZZ=           -444.1139
   XY=             -2.6783   XZ=             -7.3108   YZ=             -4.5935

 Normal termination of Gaussian 16 at Fri Feb 26 12:53:46 2021.
