 Gaussian 16, Revision C.01,
 Gaussian 16:  ES64L-G16RevC.01  3-Jul-2019

 ----------------------------------------------------------------------
 #P PBE1PBE/Def2SVP SP SCF=(YQC,MaxCycle=900) int=(Grid=Superfinegrid)
 EmpiricalDispersion=GD3BJ SCRF=(PCM,Solvent=DiMethylSulfoxide)
 ----------------------------------------------------------------------

 --------
 _s_5d3_b
 --------
 Symbolic Z-matrix:
 Charge =  4 Multiplicity = 1

                         Standard orientation:
 ---------------------------------------------------------------------
 Center     Atomic      Atomic             Coordinates (Angstroms)
 Number     Number       Type             X           Y           Z
 ---------------------------------------------------------------------
      1         46           0        5.013157   -0.249063    0.902676
      2         46           0       -5.689643    0.224563   -0.736658
      3          6           0       -2.913346   -1.817247    6.358277
      4          6           0       -3.976001   -1.661308    5.803046
      5          6           0       -5.231887   -1.488813    5.189045
      6          6           0       -6.393477   -1.703377    5.910918
      7          6           0       -7.652522   -1.537992    5.322568
      8          6           0       -7.771695   -1.157566    4.011047
      9          6           0       -6.611352   -0.928965    3.240933
     10          6           0       -6.671051   -0.537261    1.890767
     11          7           0       -5.594981   -0.322351    1.165027
     12          6           0       -4.362019   -0.475708    1.710556
     13          6           0       -4.194610   -0.853015    3.013400
     14          6           0       -5.322610   -1.093186    3.824949
     15          1           0       -6.324290   -2.003427    6.945538
     16          1           0       -8.534716   -1.714777    5.918388
     17          1           0       -8.743463   -1.031066    3.560905
     18          1           0       -7.636089   -0.401373    1.408577
     19          1           0       -3.522667   -0.278906    1.044498
     20          1           0       -3.210822   -0.972275    3.438148
     21          6           0       -1.673227   -1.998807    7.006482
     22          6           0       -1.638010   -2.385116    8.350792
     23          6           0       -0.422572   -2.563073    8.987459
     24          6           0        0.765156   -2.362237    8.306356
     25          6           0        0.738016   -1.976303    6.962678
     26          6           0       -0.482168   -1.794689    6.313357
     27          1           0       -2.561969   -2.543053    8.886481
     28          1           0       -0.401125   -2.861224   10.025224
     29          1           0        1.711287   -2.502115    8.806847
     30          1           0       -0.501502   -1.497001    5.277022
     31          6           0        1.939750   -1.768573    6.254688
     32          6           0        2.955348   -1.584877    5.626007
     33          6           0        4.131132   -1.369412    4.882494
     34          6           0        5.403560   -1.525533    5.448426
     35          6           0        6.520001   -1.299731    4.662406
     36          6           0        6.353226   -0.925914    3.337667
     37          7           0        5.137595   -0.778068    2.802604
     38          6           0        4.051240   -0.989401    3.539539
     39          1           0        5.501276   -1.817829    6.482311
     40          1           0        7.510866   -1.412628    5.071717
     41          1           0        7.202790   -0.738661    2.682949
     42          1           0        3.086927   -0.854825    3.054980
     43          6           0        1.859371    6.724852    1.778037
     44          6           0        3.000766    6.328219    1.817544
     45          6           0        4.308140    5.804009    1.821101
     46          6           0        5.417489    6.624237    1.920118
     47          6           0        6.711685    6.091125    1.887028
     48          6           0        6.918476    4.743019    1.744337
     49          6           0        5.812823    3.871712    1.645263
     50          6           0        5.955763    2.480135    1.478102
     51          7           0        4.925513    1.667561    1.393651
     52          6           0        3.661658    2.156472    1.483681
     53          6           0        3.414425    3.490760    1.628185
     54          6           0        4.491428    4.397701    1.698456
     55          1           0        5.282266    7.690644    2.019710
     56          1           0        7.553522    6.761662    1.968469
     57          1           0        7.918579    4.341039    1.707912
     58          1           0        6.945343    2.037157    1.411069
     59          1           0        2.857875    1.420702    1.437607
     60          1           0        2.407109    3.869546    1.691504
     61          6           0        0.522370    7.173214    1.726592
     62          6           0        0.211360    8.508957    1.999552
     63          6           0       -1.103961    8.935817    1.946875
     64          6           0       -2.118387    8.051332    1.626632
     65          6           0       -1.815012    6.713598    1.350016
     66          6           0       -0.493443    6.276020    1.399277
     67          1           0        1.000310    9.201204    2.252045
     68          1           0       -1.339909    9.968129    2.158664
     69          1           0       -3.142652    8.389438    1.587980
     70          1           0       -0.258450    5.245696    1.183194
     71          6           0       -2.855798    5.816189    1.031655
     72          6           0       -3.748388    5.045283    0.765943
     73          6           0       -4.861286    4.226163    0.494705
     74          6           0       -6.158562    4.732256    0.659359
     75          6           0       -7.240580    3.910044    0.402791
     76          6           0       -7.012971    2.607926   -0.010987
     77          7           0       -5.774404    2.128986   -0.174329
     78          6           0       -4.718788    2.902229    0.067238
     79          1           0       -6.299701    5.750803    0.985460
     80          1           0       -8.248633    4.272545    0.523397
     81          1           0       -7.838264    1.926614   -0.217503
     82          1           0       -3.738904    2.458776   -0.084029
     83          6           0        2.505213    1.726829   -6.249086
     84          6           0        3.577714    1.575215   -5.712204
     85          6           0        4.811682    1.391082   -5.058896
     86          6           0        6.008797    1.569402   -5.729112
     87          6           0        7.234436    1.385678   -5.077616
     88          6           0        7.284729    1.023754   -3.756318
     89          6           0        6.085599    0.831751   -3.036654
     90          6           0        6.068972    0.459845   -1.679509
     91          7           0        4.951375    0.280138   -1.006374
     92          6           0        3.753485    0.452743   -1.615810
     93          6           0        3.659659    0.813158   -2.929712
     94          6           0        4.831487    1.015100   -3.685935
     95          1           0        5.995982    1.854490   -6.770305
     96          1           0        8.147533    1.533965   -5.633459
     97          1           0        8.231926    0.883791   -3.260317
     98          1           0        7.003040    0.308077   -1.141100
     99          1           0        2.876071    0.287277   -0.996454
    100          1           0        2.701265    0.947570   -3.404443
    101          6           0        1.247351    1.900865   -6.864296
    102          6           0        1.164584    2.268447   -8.211203
    103          6           0       -0.073333    2.437114   -8.806191
    104          6           0       -1.235311    2.245259   -8.080005
    105          6           0       -1.160633    1.877345   -6.732358
    106          6           0        0.081745    1.705358   -6.125501
    107          1           0        2.068930    2.419191   -8.781351
    108          1           0       -0.132365    2.720994   -9.846585
    109          1           0       -2.198509    2.378032   -8.548650
    110          1           0        0.139046    1.421891   -5.086392
    111          6           0       -2.344244    1.681361   -5.991137
    112          6           0       -3.352403    1.510841   -5.346302
    113          6           0       -4.564118    1.327702   -4.653101
    114          6           0       -5.792546    1.523039   -5.300955
    115          6           0       -6.964652    1.334371   -4.592212
    116          6           0       -6.894719    0.956862   -3.260363
    117          7           0       -5.724067    0.771312   -2.645291
    118          6           0       -4.581936    0.947733   -3.307975
    119          1           0       -5.811320    1.816504   -6.338937
    120          1           0       -7.923065    1.477386   -5.064285
    121          1           0       -7.793076    0.798579   -2.669252
    122          1           0       -3.659213    0.782331   -2.754188
    123          6           0        1.834848   -6.664653   -1.942947
    124          6           0        2.977070   -6.351027   -1.700523
    125          6           0        4.285685   -5.910253   -1.422915
    126          6           0        5.392183   -6.671265   -1.754580
    127          6           0        6.688050   -6.203849   -1.504065
    128          6           0        6.899367   -4.974779   -0.933880
    129          6           0        5.796766   -4.169945   -0.576162
    130          6           0        5.944489   -2.890726   -0.004588
    131          7           0        4.916945   -2.144497    0.336072
    132          6           0        3.651319   -2.603237    0.157331
    133          6           0        3.399470   -3.821077   -0.404758
    134          6           0        4.473575   -4.641397   -0.805713
    135          1           0        5.253417   -7.636775   -2.216951
    136          1           0        7.527470   -6.825804   -1.774895
    137          1           0        7.900705   -4.616629   -0.754807
    138          1           0        6.935620   -2.481593    0.169279
    139          1           0        2.849824   -1.943664    0.492066
    140          1           0        2.390768   -4.172986   -0.548893
    141          6           0        0.497336   -7.015866   -2.224065
    142          6           0        0.182245   -8.299803   -2.679800
    143          6           0       -1.133297   -8.632073   -2.951535
    144          6           0       -2.144058   -7.704082   -2.775546
    145          6           0       -1.836778   -6.416477   -2.321775
    146          6           0       -0.514783   -6.073322   -2.047170
    147          1           0        0.968488   -9.027070   -2.816319
    148          1           0       -1.372292   -9.624820   -3.303149
    149          1           0       -3.168646   -7.968814   -2.988235
    150          1           0       -0.276668   -5.080198   -1.700402
    151          6           0       -2.874006   -5.478426   -2.137688
    152          6           0       -3.763945   -4.676968   -1.972965
    153          6           0       -4.874121   -3.830324   -1.788944
    154          6           0       -6.172986   -4.339316   -1.930711
    155          6           0       -7.252277   -3.498190   -1.730820
    156          6           0       -7.020560   -2.174127   -1.396206
    157          7           0       -5.780561   -1.688432   -1.268775
    158          6           0       -4.727393   -2.479809   -1.456353
    159          1           0       -6.317424   -5.376583   -2.189508
    160          1           0       -8.261495   -3.863710   -1.830939
    161          1           0       -7.843824   -1.480877   -1.224194
    162          1           0       -3.746028   -2.029061   -1.340468
 ---------------------------------------------------------------------

 SCF Done:  E(RPBE1PBE) =  -4377.37756857     a.u. after   21 cycles
 SCF Done:  E(RPBE1PBE) =  -4377.37786121     A.U. after   10 cycles

 The electronic state is 1-A.
 Alpha  occ. eigenvalues --  -14.49169 -14.49166 -14.49112 -14.49026 -14.48736
 Alpha  occ. eigenvalues --  -14.48604 -14.48566 -14.48564 -10.32621 -10.32615
 Alpha  occ. eigenvalues --  -10.32613 -10.32566 -10.32546 -10.32522 -10.32517
 Alpha  occ. eigenvalues --  -10.32514 -10.32152 -10.32149 -10.32119 -10.31992
 Alpha  occ. eigenvalues --  -10.31285 -10.31230 -10.31214 -10.31211 -10.30934
 Alpha  occ. eigenvalues --  -10.30933 -10.30887 -10.30831 -10.29579 -10.29519
 Alpha  occ. eigenvalues --  -10.29478 -10.29475 -10.29435 -10.29415 -10.29413
 Alpha  occ. eigenvalues --  -10.29400 -10.29397 -10.29383 -10.29383 -10.29352
 Alpha  occ. eigenvalues --  -10.28975 -10.28936 -10.28926 -10.28921 -10.28591
 Alpha  occ. eigenvalues --  -10.28590 -10.28572 -10.28561 -10.28539 -10.28538
 Alpha  occ. eigenvalues --  -10.28526 -10.28515 -10.28313 -10.28312 -10.28305
 Alpha  occ. eigenvalues --  -10.28253 -10.28033 -10.27940 -10.27895 -10.27893
 Alpha  occ. eigenvalues --  -10.27638 -10.27626 -10.27613 -10.27612 -10.27450
 Alpha  occ. eigenvalues --  -10.27425 -10.27413 -10.27412 -10.27050 -10.27050
 Alpha  occ. eigenvalues --  -10.27032 -10.27015 -10.26965 -10.26961 -10.26939
 Alpha  occ. eigenvalues --  -10.26906 -10.26865 -10.26854 -10.26844 -10.26844
 Alpha  occ. eigenvalues --  -10.26561 -10.26560 -10.26554 -10.26545 -10.26531
 Alpha  occ. eigenvalues --  -10.26530 -10.26525 -10.26513 -10.26512 -10.26508
 Alpha  occ. eigenvalues --  -10.26489 -10.26458 -10.26348 -10.26348 -10.26344
 Alpha  occ. eigenvalues --  -10.26341 -10.26038 -10.26037 -10.26037 -10.26032
 Alpha  occ. eigenvalues --  -10.25930 -10.25928 -10.25925 -10.25917  -3.57659
 Alpha  occ. eigenvalues --   -3.57487  -2.25579  -2.25558  -2.25410  -2.25384
 Alpha  occ. eigenvalues --   -2.21374  -2.21219  -1.04507  -1.04254  -1.03863
 Alpha  occ. eigenvalues --   -1.03821  -1.03649  -1.03460  -1.03298  -1.03245
 Alpha  occ. eigenvalues --   -0.92917  -0.92888  -0.92837  -0.92830  -0.92030
 Alpha  occ. eigenvalues --   -0.92026  -0.92022  -0.92013  -0.88940  -0.88738
 Alpha  occ. eigenvalues --   -0.88736  -0.88731  -0.85711  -0.85680  -0.85675
 Alpha  occ. eigenvalues --   -0.85642  -0.84834  -0.84776  -0.84755  -0.84723
 Alpha  occ. eigenvalues --   -0.84270  -0.84204  -0.84139  -0.84128  -0.83483
 Alpha  occ. eigenvalues --   -0.83417  -0.83368  -0.83363  -0.81677  -0.81626
 Alpha  occ. eigenvalues --   -0.81625  -0.81561  -0.80620  -0.80581  -0.80558
 Alpha  occ. eigenvalues --   -0.80486  -0.77658  -0.77615  -0.77548  -0.77529
 Alpha  occ. eigenvalues --   -0.76125  -0.76105  -0.76100  -0.76073  -0.71713
 Alpha  occ. eigenvalues --   -0.71627  -0.71607  -0.71546  -0.71482  -0.71358
 Alpha  occ. eigenvalues --   -0.71278  -0.71184  -0.69748  -0.69530  -0.69473
 Alpha  occ. eigenvalues --   -0.69360  -0.69177  -0.69121  -0.69031  -0.68987
 Alpha  occ. eigenvalues --   -0.68305  -0.68300  -0.68277  -0.68254  -0.66547
 Alpha  occ. eigenvalues --   -0.66503  -0.66492  -0.66479  -0.65556  -0.65552
 Alpha  occ. eigenvalues --   -0.65515  -0.65501  -0.62178  -0.61743  -0.61560
 Alpha  occ. eigenvalues --   -0.61303  -0.60846  -0.60461  -0.60207  -0.60172
 Alpha  occ. eigenvalues --   -0.59308  -0.59017  -0.58922  -0.58904  -0.58571
 Alpha  occ. eigenvalues --   -0.58279  -0.58120  -0.58087  -0.56999  -0.56719
 Alpha  occ. eigenvalues --   -0.56646  -0.56636  -0.56598  -0.56391  -0.56356
 Alpha  occ. eigenvalues --   -0.56215  -0.55149  -0.54844  -0.54794  -0.54627
 Alpha  occ. eigenvalues --   -0.52937  -0.52820  -0.52811  -0.52472  -0.52112
 Alpha  occ. eigenvalues --   -0.52069  -0.51987  -0.51954  -0.51835  -0.51790
 Alpha  occ. eigenvalues --   -0.51744  -0.51720  -0.51690  -0.51474  -0.51225
 Alpha  occ. eigenvalues --   -0.51219  -0.51185  -0.51150  -0.51125  -0.50046
 Alpha  occ. eigenvalues --   -0.49955  -0.49815  -0.49775  -0.49737  -0.49652
 Alpha  occ. eigenvalues --   -0.49616  -0.49398  -0.49339  -0.49291  -0.49192
 Alpha  occ. eigenvalues --   -0.49048  -0.49023  -0.48990  -0.48931  -0.48802
 Alpha  occ. eigenvalues --   -0.48696  -0.48674  -0.48562  -0.48088  -0.47805
 Alpha  occ. eigenvalues --   -0.47800  -0.47255  -0.47205  -0.46914  -0.46628
 Alpha  occ. eigenvalues --   -0.46627  -0.46614  -0.46606  -0.45853  -0.44981
 Alpha  occ. eigenvalues --   -0.44927  -0.44656  -0.44325  -0.43990  -0.43932
 Alpha  occ. eigenvalues --   -0.43911  -0.43862  -0.43754  -0.43640  -0.43553
 Alpha  occ. eigenvalues --   -0.43520  -0.43408  -0.43309  -0.43304  -0.42917
 Alpha  occ. eigenvalues --   -0.42552  -0.42254  -0.42034  -0.41902  -0.40888
 Alpha  occ. eigenvalues --   -0.40814  -0.40752  -0.40345  -0.40327  -0.40320
 Alpha  occ. eigenvalues --   -0.40312  -0.40252  -0.39734  -0.39691  -0.39622
 Alpha  occ. eigenvalues --   -0.39579  -0.39570  -0.39546  -0.39533  -0.39480
 Alpha  occ. eigenvalues --   -0.39408  -0.39401  -0.39043  -0.38130  -0.37576
 Alpha  occ. eigenvalues --   -0.37421  -0.37151  -0.36878  -0.36792  -0.36634
 Alpha  occ. eigenvalues --   -0.36492  -0.36359  -0.36211  -0.34994  -0.34899
 Alpha  occ. eigenvalues --   -0.34731  -0.34371  -0.34354  -0.34195  -0.34174
 Alpha  occ. eigenvalues --   -0.34073  -0.33887  -0.33713  -0.33589  -0.32885
 Alpha  occ. eigenvalues --   -0.32547  -0.32252  -0.32146  -0.31978  -0.31864
 Alpha  occ. eigenvalues --   -0.31817  -0.31762  -0.31659  -0.31607  -0.31478
 Alpha  occ. eigenvalues --   -0.31237  -0.31140  -0.31131  -0.31118  -0.31077
 Alpha  occ. eigenvalues --   -0.30774  -0.29752  -0.29642  -0.29567  -0.29401
 Alpha  occ. eigenvalues --   -0.29142  -0.28981  -0.26647  -0.26555  -0.26506
 Alpha  occ. eigenvalues --   -0.26386  -0.24920  -0.24867  -0.24833  -0.24747
 Alpha virt. eigenvalues --   -0.10301  -0.10155  -0.10147  -0.09716  -0.09359
 Alpha virt. eigenvalues --   -0.09151  -0.08990  -0.08575  -0.07483  -0.07386
 Alpha virt. eigenvalues --   -0.07244  -0.07178  -0.07076  -0.07047  -0.06672

 Mulliken charges:
               1
     1  Pd   0.495968
     2  Pd   0.502005
     3  C    0.021614
     4  C   -0.071472
     5  C   -0.023895
     6  C    0.019973
     7  C   -0.000590
     8  C    0.021003
     9  C   -0.062808
    10  C    0.180870
    11  N   -0.319617
    12  C    0.149607
    13  C   -0.012446
    14  C    0.074038
    15  H    0.044539
    16  H    0.055006
    17  H    0.044929
    18  H    0.086074
    19  H    0.100310
    20  H    0.050991
    21  C   -0.067854
    22  C    0.021265
    23  C   -0.011755
    24  C    0.021944
    25  C   -0.070469
    26  C    0.019697
    27  H    0.038572
    28  H    0.048090
    29  H    0.038697
    30  H    0.033082
    31  C    0.017948
    32  C   -0.011597
    33  C   -0.124488
    34  C    0.108408
    35  C   -0.033560
    36  C    0.153411
    37  N   -0.307087
    38  C    0.187611
    39  H    0.063922
    40  H    0.071578
    41  H    0.114006
    42  H    0.087823
    43  C    0.017442
    44  C   -0.067170
    45  C   -0.019962
    46  C    0.020822
    47  C   -0.001989
    48  C    0.021689
    49  C   -0.064648
    50  C    0.183726
    51  N   -0.320831
    52  C    0.145357
    53  C   -0.009596
    54  C    0.067018
    55  H    0.044167
    56  H    0.054902
    57  H    0.044366
    58  H    0.086163
    59  H    0.099392
    60  H    0.048662
    61  C   -0.067665
    62  C    0.022644
    63  C   -0.011691
    64  C    0.020258
    65  C   -0.068905
    66  C    0.018589
    67  H    0.038670
    68  H    0.048182
    69  H    0.038946
    70  H    0.034202
    71  C    0.023379
    72  C   -0.018726
    73  C   -0.122230
    74  C    0.103259
    75  C   -0.028666
    76  C    0.145134
    77  N   -0.313841
    78  C    0.195811
    79  H    0.064981
    80  H    0.071854
    81  H    0.114206
    82  H    0.088835
    83  C    0.017877
    84  C   -0.067621
    85  C   -0.020341
    86  C    0.020290
    87  C   -0.001447
    88  C    0.020696
    89  C   -0.057388
    90  C    0.177383
    91  N   -0.321423
    92  C    0.157592
    93  C   -0.014678
    94  C    0.068792
    95  H    0.044313
    96  H    0.054863
    97  H    0.044130
    98  H    0.095402
    99  H    0.085572
   100  H    0.049301
   101  C   -0.067350
   102  C    0.022180
   103  C   -0.011801
   104  C    0.020842
   105  C   -0.068954
   106  C    0.018106
   107  H    0.038615
   108  H    0.048192
   109  H    0.038818
   110  H    0.034277
   111  C    0.019950
   112  C   -0.016473
   113  C   -0.119695
   114  C    0.105206
   115  C   -0.032932
   116  C    0.152630
   117  N   -0.311473
   118  C    0.191003
   119  H    0.064679
   120  H    0.072182
   121  H    0.101376
   122  H    0.098694
   123  C    0.017537
   124  C   -0.067178
   125  C   -0.019956
   126  C    0.021007
   127  C   -0.001829
   128  C    0.021530
   129  C   -0.064568
   130  C    0.183342
   131  N   -0.321156
   132  C    0.145365
   133  C   -0.009270
   134  C    0.066803
   135  H    0.044145
   136  H    0.054884
   137  H    0.044316
   138  H    0.086194
   139  H    0.099586
   140  H    0.048448
   141  C   -0.067615
   142  C    0.022660
   143  C   -0.011715
   144  C    0.020124
   145  C   -0.068971
   146  C    0.018799
   147  H    0.038736
   148  H    0.048180
   149  H    0.038969
   150  H    0.034063
   151  C    0.023412
   152  C   -0.018457
   153  C   -0.122332
   154  C    0.103279
   155  C   -0.028593
   156  C    0.144879
   157  N   -0.313854
   158  C    0.195791
   159  H    0.064976
   160  H    0.071839
   161  H    0.114480
   162  H    0.088680
 Sum of Mulliken charges =   4.00000

 Dipole moment (field-independent basis, Debye):
    X=             -6.1467    Y=              0.0698    Z=              0.0182  Tot=              6.1471
 Quadrupole moment (field-independent basis, Debye-Ang):
   XX=            142.4899   YY=           -388.7941   ZZ=           -382.5212
   XY=            -15.2718   XZ=             52.0127   YZ=             -2.7030

 Normal termination of Gaussian 16 at Fri Feb 26 15:11:22 2021.
