 Gaussian 16, Revision C.01,
 Gaussian 16:  ES64L-G16RevC.01  3-Jul-2019

 ----------------------------------------------------------------------
 #P PBE1PBE/Def2SVP SP SCF=(YQC,MaxCycle=900) int=(Grid=Superfinegrid)
 EmpiricalDispersion=GD3BJ SCRF=(PCM,Solvent=DiMethylSulfoxide)
 ----------------------------------------------------------------------

 --------
 _s_5b4_a
 --------
 Symbolic Z-matrix:
 Charge =  4 Multiplicity = 1

                         Standard orientation:
 ---------------------------------------------------------------------
 Center     Atomic      Atomic             Coordinates (Angstroms)
 Number     Number       Type             X           Y           Z
 ---------------------------------------------------------------------
      1         46           0        7.017180   -0.084546   -0.911869
      2         46           0       -6.466053   -0.050073   -0.469484
      3          6           0        2.284505    3.261595    4.085648
      4          6           0        3.481279    3.388085    3.959121
      5          6           0        4.866701    3.402339    3.706686
      6          6           0        5.770048    4.075423    4.507999
      7          6           0        7.143165    4.033860    4.233514
      8          6           0        7.635514    3.316658    3.173027
      9          6           0        6.746869    2.612214    2.331746
     10          6           0        7.183196    1.835877    1.242212
     11          7           0        6.347208    1.180729    0.462184
     12          6           0        5.012204    1.239452    0.685250
     13          6           0        4.490576    1.955076    1.721953
     14          6           0        5.346971    2.661341    2.588253
     15          1           0        5.412435    4.639657    5.355927
     16          1           0        7.819114    4.574676    4.877888
     17          1           0        8.694785    3.283155    2.974871
     18          1           0        8.241599    1.750385    1.006284
     19          1           0        4.382869    0.685864   -0.002925
     20          1           0        3.426795    1.982328    1.892981
     21          6           0        0.901426    3.012021    4.179646
     22          6           0        0.171586    2.780509    3.006417
     23          6           0       -1.156257    2.423501    3.072341
     24          6           0       -1.782309    2.284583    4.316187
     25          6           0       -1.063354    2.556629    5.487611
     26          6           0        0.263981    2.919003    5.421061
     27          1           0        0.662949    2.882197    2.051385
     28          1           0       -1.716538    2.240633    2.169324
     29          1           0       -1.553706    2.467574    6.445319
     30          1           0        0.821689    3.114021    6.324669
     31          6           0       -3.116340    1.848103    4.418530
     32          6           0       -4.246298    1.429562    4.533322
     33          6           0       -5.546255    0.971462    4.810959
     34          6           0       -6.000962    1.013308    6.119007
     35          6           0       -7.283089    0.572116    6.455604
     36          6           0       -8.133720    0.084499    5.494513
     37          6           0       -7.715825    0.024112    4.153699
     38          6           0       -8.548778   -0.458605    3.119802
     39          6           0       -8.092748   -0.480563    1.835419
     40          7           0       -6.844749   -0.061398    1.501836
     41          6           0       -6.034065    0.387997    2.440872
     42          6           0       -6.408698    0.465357    3.792502
     43          1           0       -5.350617    1.396981    6.890082
     44          1           0       -7.601775    0.620598    7.485661
     45          1           0       -9.124927   -0.253423    5.752789
     46          1           0       -9.543510   -0.800788    3.356126
     47          1           0       -8.717332   -0.843803    1.021936
     48          1           0       -5.044525    0.707631    2.126272
     49          6           0        2.835323    5.487893   -2.599907
     50          6           0        4.038172    5.516499   -2.736443
     51          6           0        5.436430    5.348844   -2.760734
     52          6           0        6.334201    6.399001   -2.816702
     53          6           0        7.712206    6.166232   -2.722571
     54          6           0        8.212912    4.902389   -2.531149
     55          6           0        7.331555    3.802082   -2.473229
     56          6           0        7.758427    2.485147   -2.190789
     57          7           0        6.927701    1.467614   -2.141105
     58          6           0        5.608517    1.656140   -2.420587
     59          6           0        5.090773    2.893834   -2.659702
     60          6           0        5.936091    4.020531   -2.639836
     61          1           0        5.969734    7.409406   -2.923391
     62          1           0        8.386016    7.007511   -2.778602
     63          1           0        9.273498    4.741242   -2.422119
     64          1           0        8.804929    2.276443   -1.994010
     65          1           0        4.970446    0.769796   -2.447897
     66          1           0        4.039465    3.030138   -2.853553
     67          6           0        1.447679    5.404608   -2.372243
     68          6           0        0.842380    4.142280   -2.302065
     69          6           0       -0.497704    4.024161   -2.007742
     70          6           0       -1.265210    5.169300   -1.771644
     71          6           0       -0.665884    6.433323   -1.864332
     72          6           0        0.673606    6.550927   -2.162321
     73          1           0        1.436063    3.258939   -2.478893
     74          1           0       -0.959666    3.050981   -1.954021
     75          1           0       -1.261664    7.317634   -1.694461
     76          1           0        1.133825    7.525523   -2.226399
     77          6           0       -2.630863    5.098676   -1.437551
     78          6           0       -3.803580    5.083136   -1.135057
     79          6           0       -5.156679    5.312138   -0.825631
     80          6           0       -5.574053    6.633050   -0.753256
     81          6           0       -6.902863    6.965718   -0.485552
     82          6           0       -7.843321    5.983870   -0.295492
     83          6           0       -7.465616    4.631874   -0.356496
     84          6           0       -8.397968    3.584530   -0.185420
     85          6           0       -7.981491    2.289403   -0.250725
     86          7           0       -6.679153    1.952519   -0.456648
     87          6           0       -5.781199    2.902942   -0.632279
     88          6           0       -6.108371    4.271216   -0.608867
     89          1           0       -4.852142    7.418911   -0.914508
     90          1           0       -7.186490    8.005776   -0.437669
     91          1           0       -8.874384    6.234196   -0.101356
     92          1           0       -9.434979    3.821651   -0.009545
     93          1           0       -8.689335    1.467905   -0.136250
     94          1           0       -4.757147    2.587160   -0.803329
     95          6           0        2.950365   -4.832217   -2.981603
     96          6           0        4.101084   -5.102032   -2.721413
     97          6           0        5.454393   -5.174404   -2.323401
     98          6           0        6.031227   -6.300532   -1.770920
     99          6           0        7.338495   -6.259678   -1.265961
    100          6           0        8.058787   -5.092739   -1.247619
    101          6           0        7.503057   -3.918320   -1.799454
    102          6           0        8.101340   -2.645637   -1.669243
    103          7           0        7.567303   -1.550107   -2.171835
    104          6           0        6.458536   -1.653540   -2.958033
    105          6           0        5.759342   -2.821123   -3.077266
    106          6           0        6.219521   -3.977281   -2.410454
    107          1           0        5.466726   -7.218933   -1.716066
    108          1           0        7.765028   -7.161391   -0.853936
    109          1           0        9.042129   -5.056868   -0.806490
    110          1           0        9.025086   -2.535427   -1.112566
    111          1           0        6.201590   -0.775861   -3.543480
    112          1           0        4.853135   -2.870623   -3.659898
    113          6           0        1.641053   -4.394581   -3.280207
    114          6           0        1.223711   -4.276314   -4.609930
    115          6           0        0.004546   -3.705459   -4.901831
    116          6           0       -0.823053   -3.236498   -3.872530
    117          6           0       -0.424241   -3.397500   -2.541935
    118          6           0        0.794459   -3.971653   -2.249394
    119          1           0        1.866936   -4.622150   -5.405385
    120          1           0       -0.312510   -3.602931   -5.928643
    121          1           0       -1.070758   -3.059715   -1.748045
    122          1           0        1.111012   -4.088856   -1.224687
    123          6           0       -2.025084   -2.592205   -4.224885
    124          6           0       -3.023844   -2.010413   -4.586248
    125          6           0       -4.134389   -1.418026   -5.215242
    126          6           0       -4.199046   -1.491948   -6.598473
    127          6           0       -5.279574   -0.964105   -7.307887
    128          6           0       -6.324487   -0.366332   -6.648141
    129          6           0       -6.302186   -0.267351   -5.246489
    130          6           0       -7.361406    0.314389   -4.515717
    131          6           0       -7.293830    0.379207   -3.155805
    132          7           0       -6.217255   -0.071812   -2.459911
    133          6           0       -5.208337   -0.625953   -3.107950
    134          6           0       -5.193365   -0.775580   -4.505891
    135          1           0       -3.397304   -1.975364   -7.135015
    136          1           0       -5.290697   -1.040288   -8.384284
    137          1           0       -7.169499    0.028050   -7.190233
    138          1           0       -8.222294    0.694866   -5.041767
    139          1           0       -8.109052    0.806203   -2.576305
    140          1           0       -4.368261   -0.971940   -2.512426
    141          6           0        2.496649   -3.573623    3.847848
    142          6           0        3.686050   -3.396197    3.980741
    143          6           0        5.063096   -3.091709    3.979992
    144          6           0        5.867428   -3.230484    5.094937
    145          6           0        7.216674   -2.854496    5.057118
    146          6           0        7.774823   -2.319913    3.923950
    147          6           0        6.989015   -2.169956    2.760912
    148          6           0        7.480924   -1.587369    1.577239
    149          7           0        6.742283   -1.454253    0.495851
    150          6           0        5.465050   -1.914539    0.477517
    151          6           0        4.888063   -2.471857    1.579534
    152          6           0        5.627229   -2.584565    2.774622
    153          1           0        5.448831   -3.624650    6.008473
    154          1           0        7.816386   -2.978763    5.945590
    155          1           0        8.808041   -2.012042    3.910609
    156          1           0        8.500327   -1.219355    1.518169
    157          1           0        4.931480   -1.825606   -0.468490
    158          1           0        3.868734   -2.821014    1.553171
    159          6           0        1.126115   -3.754724    3.568021
    160          6           0        0.382423   -2.672263    3.081730
    161          6           0       -0.918707   -2.854402    2.668554
    162          6           0       -1.499452   -4.126237    2.722989
    163          6           0       -0.771999   -5.196320    3.259866
    164          6           0        0.526859   -5.012748    3.681529
    165          1           0        0.844224   -1.698829    3.025712
    166          1           0       -1.488818   -2.023698    2.284108
    167          1           0       -1.229526   -6.172015    3.324503
    168          1           0        1.093698   -5.842083    4.077195
    169          6           0       -2.782741   -4.371050    2.198122
    170          6           0       -3.847654   -4.625507    1.681760
    171          6           0       -5.053882   -5.076552    1.116749
    172          6           0       -5.395702   -6.411139    1.266193
    173          6           0       -6.571089   -6.925679    0.714256
    174          6           0       -7.427030   -6.118680    0.005925
    175          6           0       -7.124580   -4.756885   -0.166383
    176          6           0       -7.974177   -3.874891   -0.871232
    177          6           0       -7.642519   -2.557489   -0.983900
    178          7           0       -6.500616   -2.049931   -0.448721
    179          6           0       -5.674099   -2.845159    0.203387
    180          6           0       -5.927497   -4.214756    0.387888
    181          1           0       -4.738102   -7.063475    1.820008
    182          1           0       -6.802170   -7.971002    0.850847
    183          1           0       -8.335160   -6.514515   -0.420432
    184          1           0       -8.885738   -4.252095   -1.306821
    185          1           0       -8.284051   -1.856193   -1.516753
    186          1           0       -4.772664   -2.394820    0.608277
 ---------------------------------------------------------------------

 SCF Done:  E(RPBE1PBE) =  -4990.81043185     a.u. after   17 cycles
 SCF Done:  E(RPBE1PBE) =  -4990.81045490     A.U. after    9 cycles

 The electronic state is 1-A.
 Alpha  occ. eigenvalues --  -14.49124 -14.48897 -14.48588 -14.48557 -14.48551
 Alpha  occ. eigenvalues --  -14.48544 -14.48474 -14.47152 -10.32923 -10.32917
 Alpha  occ. eigenvalues --  -10.32789 -10.32741 -10.32584 -10.32549 -10.32534
 Alpha  occ. eigenvalues --  -10.32510 -10.31453 -10.31441 -10.31315 -10.31192
 Alpha  occ. eigenvalues --  -10.31061 -10.31040 -10.31027 -10.30980 -10.29919
 Alpha  occ. eigenvalues --  -10.29917 -10.29913 -10.29881 -10.29721 -10.29692
 Alpha  occ. eigenvalues --  -10.29684 -10.29572 -10.29565 -10.29542 -10.29528
 Alpha  occ. eigenvalues --  -10.29505 -10.29294 -10.29267 -10.29266 -10.29227
 Alpha  occ. eigenvalues --  -10.29224 -10.29172 -10.29161 -10.29148 -10.29127
 Alpha  occ. eigenvalues --  -10.29123 -10.29105 -10.29043 -10.28615 -10.28583
 Alpha  occ. eigenvalues --  -10.28582 -10.28574 -10.28570 -10.28568 -10.28563
 Alpha  occ. eigenvalues --  -10.28560 -10.28082 -10.28025 -10.27927 -10.27869
 Alpha  occ. eigenvalues --  -10.27859 -10.27851 -10.27834 -10.27831 -10.27829
 Alpha  occ. eigenvalues --  -10.27791 -10.27777 -10.27741 -10.27618 -10.27608
 Alpha  occ. eigenvalues --  -10.27574 -10.27519 -10.27320 -10.27305 -10.27290
 Alpha  occ. eigenvalues --  -10.27283 -10.27126 -10.27110 -10.27089 -10.27080
 Alpha  occ. eigenvalues --  -10.27035 -10.26987 -10.26980 -10.26954 -10.26907
 Alpha  occ. eigenvalues --  -10.26891 -10.26884 -10.26881 -10.26596 -10.26590
 Alpha  occ. eigenvalues --  -10.26589 -10.26584 -10.26565 -10.26547 -10.26547
 Alpha  occ. eigenvalues --  -10.26539 -10.26529 -10.26526 -10.26504 -10.26489
 Alpha  occ. eigenvalues --  -10.26482 -10.26482 -10.26470 -10.26465 -10.26463
 Alpha  occ. eigenvalues --  -10.26462 -10.26461 -10.26449 -10.26408 -10.26405
 Alpha  occ. eigenvalues --  -10.26403 -10.26391 -10.26249 -10.26247 -10.26246
 Alpha  occ. eigenvalues --  -10.26223 -10.26220 -10.26185 -10.26157 -10.26156
 Alpha  occ. eigenvalues --   -3.58073  -3.57363  -2.26165  -2.25829  -2.25246
 Alpha  occ. eigenvalues --   -2.25216  -2.21868  -2.21071  -1.04607  -1.03817
 Alpha  occ. eigenvalues --   -1.03651  -1.03355  -1.03102  -1.03059  -1.03013
 Alpha  occ. eigenvalues --   -1.02940  -0.93121  -0.93022  -0.92971  -0.92969
 Alpha  occ. eigenvalues --   -0.92836  -0.92740  -0.92723  -0.92717  -0.91915
 Alpha  occ. eigenvalues --   -0.91911  -0.91907  -0.91891  -0.86298  -0.86251
 Alpha  occ. eigenvalues --   -0.86234  -0.86217  -0.85959  -0.85857  -0.85782
 Alpha  occ. eigenvalues --   -0.85704  -0.84762  -0.84669  -0.84636  -0.84564
 Alpha  occ. eigenvalues --   -0.83877  -0.83731  -0.83638  -0.83581  -0.83188
 Alpha  occ. eigenvalues --   -0.83003  -0.82973  -0.82957  -0.81807  -0.81670
 Alpha  occ. eigenvalues --   -0.81588  -0.81489  -0.81106  -0.80982  -0.80894
 Alpha  occ. eigenvalues --   -0.80769  -0.79545  -0.79539  -0.79533  -0.79504
 Alpha  occ. eigenvalues --   -0.78084  -0.78044  -0.78009  -0.77970  -0.75533
 Alpha  occ. eigenvalues --   -0.75508  -0.75491  -0.75475  -0.71992  -0.71694
 Alpha  occ. eigenvalues --   -0.71596  -0.71516  -0.71363  -0.71278  -0.71220
 Alpha  occ. eigenvalues --   -0.71168  -0.69894  -0.69825  -0.69779  -0.69735
 Alpha  occ. eigenvalues --   -0.69496  -0.69194  -0.69080  -0.68949  -0.68799
 Alpha  occ. eigenvalues --   -0.68683  -0.68622  -0.68605  -0.67110  -0.67057
 Alpha  occ. eigenvalues --   -0.66996  -0.66958  -0.65712  -0.65656  -0.65627
 Alpha  occ. eigenvalues --   -0.65581  -0.65389  -0.65385  -0.65376  -0.65371
 Alpha  occ. eigenvalues --   -0.60879  -0.60479  -0.60428  -0.60273  -0.60115
 Alpha  occ. eigenvalues --   -0.60008  -0.59974  -0.59935  -0.59042  -0.58533
 Alpha  occ. eigenvalues --   -0.58503  -0.58382  -0.58230  -0.58220  -0.58192
 Alpha  occ. eigenvalues --   -0.58168  -0.58046  -0.58016  -0.57938  -0.57858
 Alpha  occ. eigenvalues --   -0.57353  -0.57291  -0.57147  -0.57017  -0.56504
 Alpha  occ. eigenvalues --   -0.56337  -0.56129  -0.56112  -0.55446  -0.55355
 Alpha  occ. eigenvalues --   -0.55259  -0.55198  -0.53138  -0.52853  -0.52664
 Alpha  occ. eigenvalues --   -0.52565  -0.52480  -0.52478  -0.52278  -0.51880
 Alpha  occ. eigenvalues --   -0.51840  -0.51758  -0.51697  -0.51649  -0.51384
 Alpha  occ. eigenvalues --   -0.51308  -0.51305  -0.51252  -0.51167  -0.51079
 Alpha  occ. eigenvalues --   -0.50972  -0.50938  -0.50562  -0.50553  -0.50386
 Alpha  occ. eigenvalues --   -0.50020  -0.49935  -0.49815  -0.49475  -0.49441
 Alpha  occ. eigenvalues --   -0.49410  -0.49248  -0.49135  -0.49033  -0.48873
 Alpha  occ. eigenvalues --   -0.48765  -0.48531  -0.48505  -0.48461  -0.48372
 Alpha  occ. eigenvalues --   -0.48277  -0.48042  -0.47968  -0.47888  -0.47440
 Alpha  occ. eigenvalues --   -0.47430  -0.47420  -0.47412  -0.47260  -0.47115
 Alpha  occ. eigenvalues --   -0.46349  -0.46332  -0.46317  -0.46291  -0.46008
 Alpha  occ. eigenvalues --   -0.45867  -0.45603  -0.45362  -0.44944  -0.44756
 Alpha  occ. eigenvalues --   -0.44460  -0.44447  -0.44433  -0.44141  -0.44056
 Alpha  occ. eigenvalues --   -0.43885  -0.43845  -0.43779  -0.43754  -0.43722
 Alpha  occ. eigenvalues --   -0.43628  -0.43338  -0.43093  -0.42711  -0.42668
 Alpha  occ. eigenvalues --   -0.42396  -0.42076  -0.42033  -0.41926  -0.41802
 Alpha  occ. eigenvalues --   -0.41766  -0.41678  -0.41599  -0.41524  -0.41503
 Alpha  occ. eigenvalues --   -0.41488  -0.40382  -0.40158  -0.40134  -0.40038
 Alpha  occ. eigenvalues --   -0.39797  -0.39716  -0.39620  -0.39608  -0.39529
 Alpha  occ. eigenvalues --   -0.39506  -0.39443  -0.39436  -0.39140  -0.39127
 Alpha  occ. eigenvalues --   -0.39101  -0.39085  -0.38834  -0.38452  -0.38387
 Alpha  occ. eigenvalues --   -0.38230  -0.37444  -0.37139  -0.36832  -0.36810
 Alpha  occ. eigenvalues --   -0.36686  -0.36664  -0.36504  -0.36476  -0.36252
 Alpha  occ. eigenvalues --   -0.36089  -0.35600  -0.35404  -0.35073  -0.35028
 Alpha  occ. eigenvalues --   -0.34535  -0.34194  -0.34062  -0.33983  -0.33176
 Alpha  occ. eigenvalues --   -0.32906  -0.32597  -0.32187  -0.32042  -0.32015
 Alpha  occ. eigenvalues --   -0.31784  -0.31539  -0.31492  -0.31419  -0.31394
 Alpha  occ. eigenvalues --   -0.31368  -0.31344  -0.31306  -0.31237  -0.31195
 Alpha  occ. eigenvalues --   -0.31071  -0.30891  -0.30801  -0.30466  -0.29834
 Alpha  occ. eigenvalues --   -0.29810  -0.29797  -0.29778  -0.29652  -0.29412
 Alpha  occ. eigenvalues --   -0.29179  -0.29006  -0.28677  -0.28399  -0.26870
 Alpha  occ. eigenvalues --   -0.26701  -0.26455  -0.26276  -0.24439  -0.24279
 Alpha  occ. eigenvalues --   -0.23989  -0.23826
 Alpha virt. eigenvalues --   -0.11601  -0.11011  -0.10951  -0.10698  -0.10578
 Alpha virt. eigenvalues --   -0.10353  -0.09967  -0.09293  -0.08465  -0.07820
 Alpha virt. eigenvalues --   -0.07630  -0.07154  -0.06984  -0.06901  -0.06668

 Mulliken charges:
               1
     1  Pd   0.437814
     2  Pd   0.502027
     3  C   -0.000850
     4  C   -0.042472
     5  C   -0.019376
     6  C    0.025375
     7  C   -0.001923
     8  C    0.023434
     9  C   -0.051653
    10  C    0.175867
    11  N   -0.331614
    12  C    0.166568
    13  C   -0.008045
    14  C    0.066450
    15  H    0.044890
    16  H    0.055961
    17  H    0.045159
    18  H    0.098564
    19  H    0.088798
    20  H    0.043127
    21  C   -0.071506
    22  C    0.004350
    23  C    0.015289
    24  C   -0.073230
    25  C    0.011969
    26  C    0.019293
    27  H    0.037519
    28  H    0.034504
    29  H    0.039806
    30  H    0.038833
    31  C    0.021620
    32  C   -0.071623
    33  C   -0.011688
    34  C    0.003819
    35  C    0.016394
    36  C    0.006256
    37  C    0.032063
    38  C   -0.012279
    39  C    0.125002
    40  N   -0.323232
    41  C    0.183249
    42  C   -0.006393
    43  H    0.042388
    44  H    0.056154
    45  H    0.041814
    46  H    0.053314
    47  H    0.104547
    48  H    0.083839
    49  C    0.015633
    50  C   -0.059859
    51  C   -0.015355
    52  C    0.025135
    53  C   -0.002399
    54  C    0.023446
    55  C   -0.061318
    56  C    0.178979
    57  N   -0.311581
    58  C    0.112148
    59  C    0.003614
    60  C    0.058942
    61  H    0.044691
    62  H    0.056002
    63  H    0.045800
    64  H    0.089124
    65  H    0.096528
    66  H    0.042388
    67  C   -0.062600
    68  C   -0.006770
    69  C    0.019804
    70  C   -0.072307
    71  C    0.009467
    72  C    0.018269
    73  H    0.041284
    74  H    0.033729
    75  H    0.040381
    76  H    0.038819
    77  C    0.035339
    78  C   -0.085301
    79  C   -0.013613
    80  C    0.001158
    81  C    0.017110
    82  C    0.005554
    83  C    0.030134
    84  C   -0.011479
    85  C    0.125822
    86  N   -0.326567
    87  C    0.183919
    88  C   -0.004172
    89  H    0.042855
    90  H    0.055740
    91  H    0.042037
    92  H    0.053552
    93  H    0.104785
    94  H    0.081631
    95  C    0.007365
    96  C   -0.041255
    97  C   -0.026370
    98  C    0.033274
    99  C   -0.003888
   100  C    0.028141
   101  C   -0.049370
   102  C    0.182813
   103  N   -0.296689
   104  C    0.108551
   105  C    0.008982
   106  C    0.031491
   107  H    0.045229
   108  H    0.056374
   109  H    0.046953
   110  H    0.088854
   111  H    0.095447
   112  H    0.056176
   113  C   -0.083276
   114  C    0.018760
   115  C    0.006935
   116  C   -0.070684
   117  C    0.015045
   118  C    0.017625
   119  H    0.038701
   120  H    0.040058
   121  H    0.033170
   122  H    0.035597
   123  C    0.029789
   124  C   -0.080543
   125  C   -0.013082
   126  C    0.000527
   127  C    0.016882
   128  C    0.005712
   129  C    0.031777
   130  C   -0.015623
   131  C    0.134934
   132  N   -0.321913
   133  C    0.182979
   134  C   -0.004233
   135  H    0.042504
   136  H    0.055715
   137  H    0.041945
   138  H    0.053295
   139  H    0.098385
   140  H    0.084391
   141  C   -0.009389
   142  C   -0.029196
   143  C   -0.028447
   144  C    0.030200
   145  C   -0.001416
   146  C    0.025699
   147  C   -0.058798
   148  C    0.181273
   149  N   -0.338481
   150  C    0.122156
   151  C    0.004098
   152  C    0.068010
   153  H    0.044975
   154  H    0.056463
   155  H    0.045746
   156  H    0.092786
   157  H    0.114585
   158  H    0.049314
   159  C   -0.081376
   160  C    0.014788
   161  C    0.013060
   162  C   -0.071943
   163  C    0.010236
   164  C    0.021017
   165  H    0.034554
   166  H    0.035079
   167  H    0.039994
   168  H    0.038991
   169  C    0.018567
   170  C   -0.068299
   171  C   -0.012292
   172  C    0.003764
   173  C    0.016628
   174  C    0.006226
   175  C    0.032338
   176  C   -0.009812
   177  C    0.123963
   178  N   -0.327957
   179  C    0.181400
   180  C   -0.006052
   181  H    0.042540
   182  H    0.056200
   183  H    0.041954
   184  H    0.053483
   185  H    0.111061
   186  H    0.084196
 Sum of Mulliken charges =   4.00000

 Dipole moment (field-independent basis, Debye):
    X=             -0.4002    Y=             -0.1877    Z=             -1.6850  Tot=              1.7420
 Quadrupole moment (field-independent basis, Debye-Ang):
   XX=            286.5515   YY=           -445.8714   ZZ=           -499.5890
   XY=             10.5026   XZ=             33.4432   YZ=             -5.4167

 Normal termination of Gaussian 16 at Fri Feb 26 13:26:08 2021.
