 Gaussian 16, Revision C.01,
 Gaussian 16:  ES64L-G16RevC.01  3-Jul-2019

 ------------------------------------------------------------------
 # SP PBE1PBE/def2svp empiricaldispersion=GD3BJ scrf=(solvent=dmso)
 ------------------------------------------------------------------

 -----------
 trans_l2_la
 -----------
 Symbolic Z-matrix:
 Charge =  4 Multiplicity = 1

                         Standard orientation:
 ---------------------------------------------------------------------
 Center     Atomic      Atomic             Coordinates (Angstroms)
 Number     Number       Type             X           Y           Z
 ---------------------------------------------------------------------
      1         46           0       -5.657300   -2.140589    1.330699
      2         46           0        6.252699   -2.821402   -1.164201
      3          6           0       -0.474496    1.467705   -4.293501
      4          6           0        0.794704    0.958504   -4.028001
      5          6           0        1.014103    0.183504   -2.881501
      6          6           0       -0.056398   -0.049495   -2.012601
      7          6           0       -1.333397    0.452306   -2.271101
      8          6           0       -1.539796    1.207707   -3.434701
      9          6           0       -2.418997    0.124808   -1.328201
     10          6           0       -2.173397    0.003107    0.048399
     11          6           0       -3.164098   -0.479592    0.888399
     12          7           0       -4.376498   -0.815790    0.427399
     13          6           0       -4.664798   -0.607190   -0.870301
     14          6           0       -3.722298   -0.140791   -1.769401
     15          6           0        2.319702   -0.420498   -2.561001
     16          6           0        3.241802   -0.822499   -3.536801
     17          6           0        4.411101   -1.470500   -3.159601
     18          7           0        4.695201   -1.719500   -1.874701
     19          6           0        3.841301   -1.308899   -0.922101
     20          6           0        2.664102   -0.660498   -1.223301
     21          1           0       -0.635895    2.081106   -5.181901
     22          1           0        1.619304    1.180803   -4.708301
     23          1           0        0.089202   -0.692795   -1.144001
     24          1           0       -2.526196    1.619408   -3.658701
     25          1           0       -1.203197    0.261406    0.473899
     26          1           0       -2.982298   -0.622892    1.955199
     27          1           0       -5.675998   -0.859389   -1.200301
     28          1           0       -3.997398   -0.048491   -2.820701
     29          1           0        3.044902   -0.673898   -4.599001
     30          1           0        5.134201   -1.814601   -3.901201
     31          1           0        4.119101   -1.504999    0.115199
     32          1           0        2.022902   -0.339597   -0.403801
     33          6           0       -0.474806   -7.804795   -2.367401
     34          6           0        0.835995   -7.366996   -2.197301
     35          6           0        1.105196   -6.244496   -1.402301
     36          6           0        0.041697   -5.576895   -0.784601
     37          6           0       -1.281104   -5.989694   -0.981201
     38          6           0       -1.531405   -7.114893   -1.778701
     39          6           0       -2.381503   -5.201392   -0.392901
     40          6           0       -2.260202   -4.619493    0.876699
     41          6           0       -3.271802   -3.808791    1.360199
     42          7           0       -4.378301   -3.553690    0.645599
     43          6           0       -4.537802   -4.133090   -0.553101
     44          6           0       -3.570303   -4.963091   -1.096501
     45          6           0        2.469296   -5.695898   -1.270601
     46          6           0        2.934997   -5.168598   -0.057801
     47          6           0        4.150098   -4.505699   -0.020101
     48          7           0        4.902298   -4.342600   -1.119201
     49          6           0        4.517897   -4.916300   -2.269501
     50          6           0        3.323396   -5.608899   -2.378301
     51          1           0       -0.676207   -8.691394   -2.971701
     52          1           0        1.656094   -7.908497   -2.673901
     53          1           0        0.241697   -4.674095   -0.203001
     54          1           0       -2.556106   -7.462692   -1.926801
     55          1           0       -1.381603   -4.796094    1.498099
     56          1           0       -3.199701   -3.338892    2.342799
     57          1           0       -5.456302   -3.901589   -1.096601
     58          1           0       -3.732503   -5.381191   -2.090501
     59          1           0        2.348897   -5.253498    0.857999
     60          1           0        4.525798   -4.062100    0.904299
     61          1           0        5.168497   -4.772201   -3.134301
     62          1           0        3.032796   -6.012198   -3.349101
     63          6           0       -8.981398   -0.095185    3.127299
     64          6           0       -8.039199   -1.017186    2.769299
     65          7           0       -6.907998   -0.671688    2.084399
     66          6           0       -6.651097    0.613912    1.890999
     67          6           0       -7.497496    1.654713    2.334799
     68          6           0       -7.152594    3.042713    2.218699
     69          6           0       -5.776794    3.510011    1.950599
     70          6           0       -5.551192    4.693311    1.227399
     71          6           0       -4.277692    5.225310    1.100399
     72          6           0       -3.167393    4.578008    1.674699
     73          6           0       -1.862392    5.130107    1.553799
     74          6           0       -0.746791    5.608706    1.442399
     75          6           0        0.549009    6.174504    1.276399
     76          6           0        1.693008    5.453503    1.656499
     77          6           0        2.943809    6.030602    1.453699
     78          6           0        4.316209    5.624900    1.685299
     79          6           0        4.938907    4.486900    2.188899
     80          6           0        6.342607    4.441798    2.217899
     81          6           0        6.997706    3.237997    2.604099
     82          6           0        7.529405    2.166997    2.842399
     83          6           0        8.108303    0.877596    3.014799
     84          6           0        9.424903    0.616995    2.593699
     85          6           0        9.934102   -0.675906    2.634099
     86          6           0        9.148601   -1.740005    3.095099
     87          6           0        9.606099   -3.140905    2.904499
     88          6           0       10.567198   -3.754606    3.677999
     89          6           0       10.982897   -5.080807    3.403599
     90          6           0       10.463096   -5.795206    2.347799
     91          6           0        9.490297   -5.197405    1.510799
     92          6           0        8.927196   -5.829805    0.372399
     93          6           0        8.019397   -5.165304   -0.412901
     94          7           0        7.626498   -3.894203   -0.121801
     95          6           0        8.111299   -3.285404    0.946399
     96          6           0        9.057298   -3.872505    1.804999
     97          6           0        7.859201   -1.470503    3.575599
     98          6           0        7.343702   -0.181303    3.539899
     99          6           0        7.099009    5.555997    1.780899
    100          6           0        6.489010    6.701198    1.282099
    101          6           0        5.101210    6.702899    1.233199
    102          8           0        4.327911    7.713900    0.753199
    103          6           0        3.033410    7.312902    0.878699
    104          6           0        1.920811    8.049003    0.494299
    105          6           0        0.678211    7.462504    0.701399
    106          6           0       -3.383094    3.380309    2.379999
    107          6           0       -4.664994    2.867710    2.524599
    108          6           0       -8.145293    3.972914    2.486399
    109          6           0       -9.431394    3.592015    2.920299
    110          6           0       -9.733695    2.270115    3.153799
    111          6           0       -8.764496    1.280514    2.875799
    112          1           0       -9.899198   -0.426884    3.615199
    113          1           0       -8.173900   -2.069086    3.004999
    114          1           0       -5.747097    0.860411    1.337799
    115          1           0       -6.388992    5.201412    0.745399
    116          1           0       -4.127091    6.151909    0.543899
    117          1           0        1.593907    4.457203    2.089499
    118          1           0        4.357706    3.629600    2.529399
    119          1           0       10.030504    1.431194    2.191999
    120          1           0       10.938902   -0.873407    2.253799
    121          1           0       11.012499   -3.213707    4.515499
    122          1           0       11.738497   -5.538908    4.045599
    123          1           0       10.798795   -6.813207    2.140499
    124          1           0        9.224395   -6.845605    0.106599
    125          1           0        7.580396   -5.620603   -1.301001
    126          1           0        7.760300   -2.272203    1.139999
    127          1           0        7.239400   -2.290103    3.947399
    128          1           0        6.328403    0.012198    3.890599
    129          1           0        8.188108    5.501096    1.823799
    130          1           0        7.070411    7.556197    0.934899
    131          1           0        2.021012    9.040003    0.049899
    132          1           0       -0.226189    7.998805    0.410199
    133          1           0       -2.537594    2.868908    2.843799
    134          1           0       -4.804295    1.977610    3.141099
    135          1           0       -7.910392    5.036614    2.418799
    136          1           0      -10.173993    4.367216    3.120899
    137          1           0      -10.704995    1.972717    3.553699
    138          6           0       -8.075304   -5.659286    2.201999
    139          6           0       -7.049403   -4.748187    2.292099
    140          7           0       -7.069701   -3.593087    1.573199
    141          6           0       -8.084301   -3.343386    0.764799
    142          6           0       -9.187902   -4.197885    0.617299
    143          6           0      -10.277802   -3.827884   -0.234401
    144          6           0      -10.117000   -2.491184   -0.870501
    145          6           0       -9.287000   -2.351985   -1.991101
    146          6           0       -8.711799   -1.123386   -2.295901
    147          6           0       -8.959297   -0.000085   -1.484301
    148          6           0       -8.199596    1.195714   -1.657101
    149          6           0       -7.486495    2.178713   -1.761501
    150          6           0       -6.675094    3.343112   -1.918901
    151          6           0       -5.276394    3.257511   -1.824101
    152          6           0       -4.518393    4.410710   -2.019101
    153          6           0       -3.105092    4.743008   -1.990101
    154          6           0       -1.923193    4.054107   -1.719401
    155          6           0       -0.704392    4.742706   -1.809901
    156          6           0        0.548507    4.115504   -1.544001
    157          6           0        1.679807    3.712003   -1.333201
    158          6           0        3.053406    3.365702   -1.175501
    159          6           0        3.509405    2.451001   -0.210901
    160          6           0        4.864505    2.156500   -0.096801
    161          6           0        5.809506    2.763899   -0.937901
    162          6           0        7.265205    2.497997   -0.859901
    163          6           0        8.143306    3.564296   -0.784001
    164          6           0        9.541706    3.378795   -0.758301
    165          6           0       10.090705    2.121194   -0.855301
    166          6           0        9.238304    1.000195   -0.976401
    167          6           0        9.727902   -0.315006   -1.166201
    168          6           0        8.860001   -1.364405   -1.292901
    169          7           0        7.507801   -1.193503   -1.210401
    170          6           0        7.019103    0.027497   -1.062501
    171          6           0        7.822004    1.180597   -0.949101
    172          6           0        5.352007    3.694099   -1.884901
    173          6           0        4.003307    3.990301   -2.006001
    174          6           0       -0.688191    6.116506   -2.156101
    175          6           0       -1.858290    6.825207   -2.390801
    176          6           0       -3.047391    6.116108   -2.296301
    177          8           0       -4.289290    6.641510   -2.477401
    178          6           0       -5.173691    5.623011   -2.308801
    179          6           0       -6.554191    5.742512   -2.388501
    180          6           0       -7.296893    4.585913   -2.188201
    181          6           0       -9.901998   -0.111884   -0.446601
    182          6           0      -10.468899   -1.345184   -0.144301
    183          6           0      -11.339103   -4.695783   -0.339601
    184          6           0      -11.339404   -5.919883    0.379699
    185          6           0      -10.302104   -6.278584    1.211899
    186          6           0       -9.190503   -5.411885    1.357999
    187          1           0       -8.029705   -6.575486    2.792999
    188          1           0       -6.185203   -4.907988    2.937799
    189          1           0       -8.042000   -2.410086    0.204699
    190          1           0       -9.010701   -3.235985   -2.570701
    191          1           0       -8.013099   -1.039786   -3.130701
    192          1           0       -4.802495    2.303510   -1.593901
    193          1           0       -1.935594    3.004507   -1.431501
    194          1           0        2.793405    1.985902    0.468899
    195          1           0        5.196804    1.474399    0.689299
    196          1           0        7.740407    4.576397   -0.722701
    197          1           0       10.190307    4.253094   -0.669901
    198          1           0       11.172405    1.974293   -0.855401
    199          1           0       10.802202   -0.495707   -1.226901
    200          1           0        9.215900   -2.379305   -1.463201
    201          1           0        5.937503    0.129599   -1.035501
    202          1           0        6.069207    4.176898   -2.552101
    203          1           0        3.667108    4.708801   -2.755501
    204          1           0        0.273410    6.628005   -2.217301
    205          1           0       -1.848389    7.887807   -2.636601
    206          1           0       -7.028690    6.701013   -2.602201
    207          1           0       -8.385792    4.627214   -2.246901
    208          1           0      -10.129397    0.759716    0.170299
    209          1           0      -11.117899   -1.439383    0.729399
    210          1           0      -12.190802   -4.443582   -0.974401
    211          1           0      -12.195705   -6.589282    0.271799
    212          1           0      -10.328705   -7.219784    1.764299
 ---------------------------------------------------------------------

 SCF Done:  E(RPBE1PBE) =  -5605.02234528     A.U. after   19 cycles

 The electronic state is 1-A.
 Alpha  occ. eigenvalues --  -19.29804 -19.29701 -14.48876 -14.48685 -14.48662
 Alpha  occ. eigenvalues --  -14.48502 -14.48436 -14.48307 -14.48250 -14.48158
 Alpha  occ. eigenvalues --  -10.32356 -10.32338 -10.32199 -10.32198 -10.32164
 Alpha  occ. eigenvalues --  -10.32106 -10.32095 -10.32068 -10.32044 -10.32043
 Alpha  occ. eigenvalues --  -10.32033 -10.32017 -10.31791 -10.31714 -10.31693
 Alpha  occ. eigenvalues --  -10.31666 -10.31174 -10.30957 -10.30893 -10.30699
 Alpha  occ. eigenvalues --  -10.30602 -10.30561 -10.30522 -10.30517 -10.29203
 Alpha  occ. eigenvalues --  -10.29044 -10.28875 -10.28850 -10.28762 -10.28756
 Alpha  occ. eigenvalues --  -10.28736 -10.28695 -10.28658 -10.28627 -10.28609
 Alpha  occ. eigenvalues --  -10.28576 -10.28543 -10.28542 -10.28477 -10.28444
 Alpha  occ. eigenvalues --  -10.28429 -10.28412 -10.28408 -10.28403 -10.28395
 Alpha  occ. eigenvalues --  -10.28372 -10.28326 -10.28242 -10.28232 -10.28215
 Alpha  occ. eigenvalues --  -10.28198 -10.28192 -10.28190 -10.28093 -10.27978
 Alpha  occ. eigenvalues --  -10.27911 -10.27889 -10.27874 -10.27641 -10.27550
 Alpha  occ. eigenvalues --  -10.27539 -10.27477 -10.27458 -10.27384 -10.27353
 Alpha  occ. eigenvalues --  -10.27348 -10.27325 -10.27315 -10.27234 -10.27186
 Alpha  occ. eigenvalues --  -10.27090 -10.27056 -10.27051 -10.27035 -10.27010
 Alpha  occ. eigenvalues --  -10.26921 -10.26907 -10.26906 -10.26857 -10.26789
 Alpha  occ. eigenvalues --  -10.26780 -10.26756 -10.26720 -10.26700 -10.26684
 Alpha  occ. eigenvalues --  -10.26664 -10.26658 -10.26648 -10.26635 -10.26633
 Alpha  occ. eigenvalues --  -10.26624 -10.26613 -10.26603 -10.26559 -10.26553
 Alpha  occ. eigenvalues --  -10.26551 -10.26437 -10.26435 -10.26404 -10.26376
 Alpha  occ. eigenvalues --  -10.26345 -10.26336 -10.26334 -10.26295 -10.26252
 Alpha  occ. eigenvalues --  -10.26249 -10.26221 -10.26216 -10.26182 -10.26142
 Alpha  occ. eigenvalues --  -10.26133 -10.26112 -10.26102 -10.26090 -10.25956
 Alpha  occ. eigenvalues --  -10.25934 -10.25927 -10.25675 -10.25637 -10.25529
 Alpha  occ. eigenvalues --  -10.25511 -10.25386 -10.25253 -10.25203  -3.57135
 Alpha  occ. eigenvalues --   -3.57018  -2.25075  -2.24982  -2.24859  -2.24731
 Alpha  occ. eigenvalues --   -2.20800  -2.20655  -1.15997  -1.15856  -1.03706
 Alpha  occ. eigenvalues --   -1.03637  -1.03016  -1.02925  -1.02855  -1.02777
 Alpha  occ. eigenvalues --   -1.02269  -1.02178  -0.92772  -0.92735  -0.92549
 Alpha  occ. eigenvalues --   -0.92460  -0.92312  -0.92268  -0.91095  -0.90987
 Alpha  occ. eigenvalues --   -0.90560  -0.90448  -0.90385  -0.90239  -0.90106
 Alpha  occ. eigenvalues --   -0.90100  -0.89200  -0.88965  -0.86633  -0.86402
 Alpha  occ. eigenvalues --   -0.85564  -0.85386  -0.85251  -0.85235  -0.83795
 Alpha  occ. eigenvalues --   -0.83642  -0.83208  -0.83102  -0.83091  -0.82958
 Alpha  occ. eigenvalues --   -0.82883  -0.82757  -0.82623  -0.82504  -0.82274
 Alpha  occ. eigenvalues --   -0.82261  -0.81833  -0.81738  -0.81454  -0.81353
 Alpha  occ. eigenvalues --   -0.80130  -0.80102  -0.79796  -0.79639  -0.79586
 Alpha  occ. eigenvalues --   -0.79479  -0.78839  -0.78721  -0.78621  -0.78558
 Alpha  occ. eigenvalues --   -0.78465  -0.78353  -0.78022  -0.77870  -0.76922
 Alpha  occ. eigenvalues --   -0.76708  -0.75034  -0.74915  -0.74515  -0.74348
 Alpha  occ. eigenvalues --   -0.71049  -0.70985  -0.70714  -0.70598  -0.70584
 Alpha  occ. eigenvalues --   -0.70522  -0.70333  -0.70298  -0.69587  -0.69441
 Alpha  occ. eigenvalues --   -0.69344  -0.69273  -0.69257  -0.69202  -0.69135
 Alpha  occ. eigenvalues --   -0.68986  -0.68551  -0.68460  -0.68344  -0.68265
 Alpha  occ. eigenvalues --   -0.67312  -0.67267  -0.66446  -0.66396  -0.64723
 Alpha  occ. eigenvalues --   -0.64477  -0.64423  -0.64273  -0.64265  -0.64179
 Alpha  occ. eigenvalues --   -0.63981  -0.63859  -0.63582  -0.63284  -0.62949
 Alpha  occ. eigenvalues --   -0.62820  -0.62751  -0.62653  -0.62121  -0.62005
 Alpha  occ. eigenvalues --   -0.60646  -0.60071  -0.58735  -0.58641  -0.58623
 Alpha  occ. eigenvalues --   -0.58189  -0.57996  -0.57985  -0.57927  -0.57681
 Alpha  occ. eigenvalues --   -0.57621  -0.57484  -0.57388  -0.57251  -0.57170
 Alpha  occ. eigenvalues --   -0.57116  -0.56487  -0.56409  -0.56231  -0.56148
 Alpha  occ. eigenvalues --   -0.56054  -0.55926  -0.55799  -0.55692  -0.55553
 Alpha  occ. eigenvalues --   -0.55396  -0.55191  -0.55075  -0.54560  -0.54438
 Alpha  occ. eigenvalues --   -0.54402  -0.54256  -0.52968  -0.52867  -0.52651
 Alpha  occ. eigenvalues --   -0.52238  -0.51704  -0.51537  -0.51446  -0.51364
 Alpha  occ. eigenvalues --   -0.51263  -0.51242  -0.51151  -0.51028  -0.50943
 Alpha  occ. eigenvalues --   -0.50717  -0.50687  -0.50502  -0.50424  -0.50347
 Alpha  occ. eigenvalues --   -0.50236  -0.50150  -0.50037  -0.49966  -0.49862
 Alpha  occ. eigenvalues --   -0.49666  -0.49537  -0.49482  -0.49419  -0.49154
 Alpha  occ. eigenvalues --   -0.49090  -0.48983  -0.48815  -0.48676  -0.48603
 Alpha  occ. eigenvalues --   -0.48512  -0.48437  -0.48322  -0.48264  -0.47995
 Alpha  occ. eigenvalues --   -0.47901  -0.47831  -0.47803  -0.47735  -0.47625
 Alpha  occ. eigenvalues --   -0.47590  -0.47229  -0.47183  -0.47154  -0.46972
 Alpha  occ. eigenvalues --   -0.46957  -0.46812  -0.46738  -0.46584  -0.46524
 Alpha  occ. eigenvalues --   -0.46470  -0.46354  -0.46293  -0.46277  -0.46167
 Alpha  occ. eigenvalues --   -0.46010  -0.45845  -0.45573  -0.45382  -0.45282
 Alpha  occ. eigenvalues --   -0.45194  -0.44793  -0.44749  -0.44571  -0.44484
 Alpha  occ. eigenvalues --   -0.44142  -0.44088  -0.43481  -0.43357  -0.43101
 Alpha  occ. eigenvalues --   -0.43048  -0.42968  -0.42850  -0.42769  -0.42637
 Alpha  occ. eigenvalues --   -0.42632  -0.42513  -0.42376  -0.42325  -0.42197
 Alpha  occ. eigenvalues --   -0.42080  -0.42037  -0.41983  -0.41885  -0.41790
 Alpha  occ. eigenvalues --   -0.41744  -0.41610  -0.41490  -0.41371  -0.41339
 Alpha  occ. eigenvalues --   -0.41303  -0.41197  -0.40944  -0.40818  -0.40577
 Alpha  occ. eigenvalues --   -0.40342  -0.40292  -0.40114  -0.39975  -0.39898
 Alpha  occ. eigenvalues --   -0.39832  -0.39284  -0.39134  -0.38756  -0.38692
 Alpha  occ. eigenvalues --   -0.38634  -0.38503  -0.38460  -0.38309  -0.38124
 Alpha  occ. eigenvalues --   -0.38050  -0.37959  -0.37719  -0.37583  -0.37504
 Alpha  occ. eigenvalues --   -0.37449  -0.37335  -0.37186  -0.37035  -0.36697
 Alpha  occ. eigenvalues --   -0.36534  -0.36392  -0.36256  -0.36133  -0.35581
 Alpha  occ. eigenvalues --   -0.35473  -0.34891  -0.34872  -0.34692  -0.34672
 Alpha  occ. eigenvalues --   -0.34505  -0.34245  -0.34234  -0.33813  -0.33739
 Alpha  occ. eigenvalues --   -0.33564  -0.33363  -0.33185  -0.32963  -0.32917
 Alpha  occ. eigenvalues --   -0.32611  -0.32433  -0.32295  -0.32060  -0.31620
 Alpha  occ. eigenvalues --   -0.31557  -0.31118  -0.30991  -0.30835  -0.30739
 Alpha  occ. eigenvalues --   -0.30471  -0.30452  -0.30066  -0.29875  -0.29384
 Alpha  occ. eigenvalues --   -0.29259  -0.29213  -0.29181  -0.29073  -0.29026
 Alpha  occ. eigenvalues --   -0.28993  -0.28937  -0.28619  -0.28572  -0.28420
 Alpha  occ. eigenvalues --   -0.28236  -0.27739  -0.27229  -0.27175  -0.26951
 Alpha  occ. eigenvalues --   -0.26645  -0.26378  -0.25576  -0.24662  -0.23920
 Alpha  occ. eigenvalues --   -0.23881  -0.22807
 Alpha virt. eigenvalues --   -0.10347  -0.09749  -0.09697  -0.09565  -0.09477
 Alpha virt. eigenvalues --   -0.09325  -0.09101  -0.09006  -0.08269  -0.07526
 Alpha virt. eigenvalues --   -0.07246  -0.06788  -0.06552  -0.06331  -0.06234

 Mulliken charges:
               1
     1  Pd   0.508895
     2  Pd   0.499557
     3  C   -0.018402
     4  C   -0.007315
     5  C    0.035440
     6  C   -0.053279
     7  C    0.010792
     8  C   -0.011218
     9  C    0.056056
    10  C   -0.045461
    11  C    0.153275
    12  N   -0.359885
    13  C    0.133911
    14  C   -0.046916
    15  C    0.071271
    16  C   -0.041137
    17  C    0.155210
    18  N   -0.353512
    19  C    0.134193
    20  C   -0.042409
    21  H    0.054755
    22  H    0.050375
    23  H    0.048989
    24  H    0.051339
    25  H    0.069870
    26  H    0.106067
    27  H    0.124623
    28  H    0.072001
    29  H    0.068160
    30  H    0.107654
    31  H    0.111758
    32  H    0.067045
    33  C   -0.022274
    34  C   -0.008710
    35  C    0.006230
    36  C   -0.024944
    37  C    0.010914
    38  C   -0.010977
    39  C    0.058998
    40  C   -0.044305
    41  C    0.152734
    42  N   -0.327608
    43  C    0.148332
    44  C   -0.037677
    45  C    0.051636
    46  C   -0.039005
    47  C    0.137420
    48  N   -0.323254
    49  C    0.149742
    50  C   -0.032444
    51  H    0.055200
    52  H    0.051106
    53  H    0.047721
    54  H    0.051017
    55  H    0.069919
    56  H    0.110272
    57  H    0.117618
    58  H    0.068292
    59  H    0.069003
    60  H    0.108892
    61  H    0.110118
    62  H    0.070051
    63  C   -0.030338
    64  C    0.118632
    65  N   -0.315702
    66  C    0.138945
    67  C   -0.025767
    68  C    0.068879
    69  C   -0.006087
    70  C   -0.037221
    71  C    0.025816
    72  C   -0.083893
    73  C   -0.026753
    74  C    0.010275
    75  C   -0.085765
    76  C   -0.019318
    77  C    0.037107
    78  C    0.023296
    79  C   -0.004186
    80  C   -0.091386
    81  C   -0.008044
    82  C   -0.014115
    83  C   -0.080769
    84  C    0.013248
    85  C    0.025425
    86  C   -0.117467
    87  C    0.023418
    88  C   -0.018559
    89  C    0.001698
    90  C   -0.005228
    91  C    0.042376
    92  C   -0.036922
    93  C    0.141171
    94  N   -0.338798
    95  C    0.154406
    96  C   -0.016810
    97  C   -0.017957
    98  C    0.003558
    99  C   -0.011349
   100  C   -0.079836
   101  C    0.205390
   102  O   -0.266150
   103  C    0.201144
   104  C   -0.080198
   105  C    0.002460
   106  C   -0.002638
   107  C   -0.056708
   108  C   -0.044073
   109  C    0.009633
   110  C   -0.006185
   111  C    0.015391
   112  H    0.059040
   113  H    0.104391
   114  H    0.099509
   115  H    0.042327
   116  H    0.040763
   117  H    0.027628
   118  H    0.028448
   119  H    0.038890
   120  H    0.039814
   121  H    0.043912
   122  H    0.060898
   123  H    0.046662
   124  H    0.060715
   125  H    0.096029
   126  H    0.133356
   127  H    0.044784
   128  H    0.037993
   129  H    0.044911
   130  H    0.044252
   131  H    0.043163
   132  H    0.041699
   133  H    0.033795
   134  H    0.054608
   135  H    0.049334
   136  H    0.058749
   137  H    0.046106
   138  C   -0.034719
   139  C    0.134341
   140  N   -0.347607
   141  C    0.143315
   142  C   -0.011528
   143  C    0.030498
   144  C   -0.131616
   145  C   -0.000982
   146  C   -0.000134
   147  C   -0.082435
   148  C   -0.037181
   149  C    0.004548
   150  C   -0.077910
   151  C   -0.018789
   152  C    0.044977
   153  C    0.028102
   154  C    0.001432
   155  C   -0.085492
   156  C    0.013465
   157  C   -0.026216
   158  C   -0.072725
   159  C    0.005006
   160  C   -0.041135
   161  C   -0.029882
   162  C    0.052979
   163  C   -0.035036
   164  C    0.009484
   165  C   -0.010638
   166  C    0.031670
   167  C   -0.026574
   168  C    0.120071
   169  N   -0.322361
   170  C    0.166965
   171  C   -0.006274
   172  C   -0.018793
   173  C    0.000092
   174  C    0.008159
   175  C   -0.081492
   176  C    0.198136
   177  O   -0.267681
   178  C    0.188646
   179  C   -0.072727
   180  C   -0.002332
   181  C    0.003262
   182  C    0.020352
   183  C   -0.027933
   184  C    0.002118
   185  C   -0.004936
   186  C    0.048732
   187  H    0.061339
   188  H    0.100383
   189  H    0.130896
   190  H    0.047847
   191  H    0.044927
   192  H    0.017219
   193  H    0.013063
   194  H    0.035713
   195  H    0.046093
   196  H    0.049607
   197  H    0.057309
   198  H    0.045141
   199  H    0.058425
   200  H    0.102919
   201  H    0.069454
   202  H    0.040689
   203  H    0.036010
   204  H    0.041651
   205  H    0.043090
   206  H    0.045469
   207  H    0.045221
   208  H    0.044219
   209  H    0.046154
   210  H    0.045075
   211  H    0.061994
   212  H    0.047329
 Sum of Mulliken charges =   4.00000

 Dipole moment (field-independent basis, Debye):
    X=              2.6110    Y=            -42.0720    Z=             -2.9245  Tot=             42.2542
 Quadrupole moment (field-independent basis, Debye-Ang):
   XX=            141.2808   YY=           -440.9117   ZZ=           -690.7557
   XY=            -13.1590   XZ=            -85.0631   YZ=            -15.8514

 Normal termination of Gaussian 16 at Sat Jun  3 03:23:43 2023.
