 Gaussian 16, Revision C.01,
 Gaussian 16:  ES64L-G16RevC.01  3-Jul-2019

 ----------------------------------------------------------------------
 #P PBE1PBE/Def2SVP SP SCF=(YQC,MaxCycle=900) int=(Grid=Superfinegrid)
 EmpiricalDispersion=GD3BJ SCRF=(PCM,Solvent=DiMethylSulfoxide)
 ----------------------------------------------------------------------

 --------
 _s_4b3_d
 --------
 Symbolic Z-matrix:
 Charge =  4 Multiplicity = 1

                         Standard orientation:
 ---------------------------------------------------------------------
 Center     Atomic      Atomic             Coordinates (Angstroms)
 Number     Number       Type             X           Y           Z
 ---------------------------------------------------------------------
      1         46           0        6.965859   -0.005191    0.014942
      2         46           0       -6.965466   -0.046467   -0.031512
      3          6           0       -3.000222   -3.381688    3.541234
      4          6           0       -4.201475   -3.464316    3.662264
      5          6           0       -5.579733   -3.642302    3.882777
      6          6           0       -5.998587   -4.514491    4.873170
      7          6           0       -7.357432   -4.730966    5.118615
      8          6           0       -8.318831   -4.082108    4.383704
      9          6           0       -7.940209   -3.181827    3.372149
     10          6           0       -8.882281   -2.478909    2.586492
     11          6           0       -8.453039   -1.610801    1.625542
     12          7           0       -7.132792   -1.393090    1.394400
     13          6           0       -6.224005   -2.031090    2.100623
     14          6           0       -6.558574   -2.948822    3.110228
     15          1           0       -5.260808   -5.038731    5.461089
     16          1           0       -7.646505   -5.420379    5.896988
     17          1           0       -9.367006   -4.252087    4.572641
     18          1           0       -9.935233   -2.636697    2.758264
     19          1           0       -9.161222   -1.055231    1.003751
     20          1           0       -5.182836   -1.820674    1.878804
     21          6           0       -1.602760   -3.274213    3.402712
     22          6           0       -0.771466   -3.598908    4.481636
     23          6           0        0.596660   -3.486613    4.361676
     24          6           0        1.160757   -3.045787    3.159665
     25          6           0        0.330387   -2.736438    2.075469
     26          6           0       -1.036305   -2.850013    2.195520
     27          1           0       -1.210090   -3.933986    5.409444
     28          1           0        1.236972   -3.732581    5.195209
     29          1           0        0.772218   -2.415577    1.145494
     30          1           0       -1.679935   -2.622944    1.360896
     31          6           0        2.554563   -2.893550    3.030394
     32          6           0        3.745877   -2.733647    2.897142
     33          6           0        5.117946   -2.496316    2.688841
     34          6           0        6.119572   -3.118696    3.448482
     35          6           0        7.443937   -2.829989    3.175651
     36          6           0        7.753509   -1.931411    2.163265
     37          7           0        6.799214   -1.340128    1.448015
     38          6           0        5.515130   -1.603856    1.689045
     39          1           0        5.851154   -3.812312    4.230124
     40          1           0        8.235806   -3.294338    3.740714
     41          1           0        8.778151   -1.677921    1.917513
     42          1           0        4.768330   -1.091599    1.073578
     43          6           0        2.953336    3.563524    3.290114
     44          6           0        4.152771    3.686047    3.395913
     45          6           0        5.527493    3.908017    3.592702
     46          6           0        5.934489    4.893233    4.476765
     47          6           0        7.290000    5.145619    4.704368
     48          6           0        8.260654    4.422816    4.055449
     49          6           0        7.894699    3.413973    3.147099
     50          6           0        8.846612    2.638003    2.446424
     51          6           0        8.429198    1.675205    1.574879
     52          7           0        7.111803    1.431358    1.353037
     53          6           0        6.194314    2.130471    1.986368
     54          6           0        6.516411    3.143654    2.903986
     55          1           0        5.189485    5.473885    4.998992
     56          1           0        7.569433    5.920808    5.401368
     57          1           0        9.306395    4.618727    4.232456
     58          1           0        9.897286    2.818162    2.609396
     59          1           0        9.144935    1.061375    1.019952
     60          1           0        5.156273    1.897250    1.773809
     61          6           0        1.557230    3.428035    3.170780
     62          6           0        0.717417    4.348935    3.810213
     63          6           0       -0.651230    4.231744    3.703859
     64          6           0       -1.207410    3.189734    2.954034
     65          6           0       -0.367740    2.267010    2.317124
     66          6           0        0.999341    2.383835    2.424194
     67          1           0        1.150442    5.152240    4.387068
     68          1           0       -1.297519    4.942281    4.196580
     69          1           0       -0.806833    1.464745    1.747101
     70          1           0        1.648945    1.672187    1.940601
     71          6           0       -2.601755    3.050489    2.823686
     72          6           0       -3.793041    2.895757    2.682598
     73          6           0       -5.162007    2.655496    2.462402
     74          6           0       -6.176699    3.379605    3.105730
     75          6           0       -7.496452    3.074622    2.828024
     76          6           0       -7.788986    2.064987    1.920767
     77          7           0       -6.822288    1.381483    1.311952
     78          6           0       -5.542504    1.654093    1.563902
     79          1           0       -5.921809    4.160353    3.805330
     80          1           0       -8.297998    3.612768    3.307550
     81          1           0       -8.809151    1.795198    1.674240
     82          1           0       -4.784504    1.062602    1.039765
     83          6           0       -2.999918    3.382430   -3.499079
     84          6           0       -4.200601    3.496868   -3.599403
     85          6           0       -5.577880    3.702219   -3.797705
     86          6           0       -5.996000    4.648686   -4.718003
     87          6           0       -7.354528    4.877613   -4.953332
     88          6           0       -8.316648    4.169131   -4.276689
     89          6           0       -7.939153    3.200947   -3.329504
     90          6           0       -8.882001    2.442173   -2.598502
     91          6           0       -8.453682    1.522139   -1.686867
     92          7           0       -7.133661    1.306895   -1.451660
     93          6           0       -6.224368    1.989509   -2.114106
     94          6           0       -6.557888    2.956824   -3.076311
     95          1           0       -5.257719    5.215637   -5.264273
     96          1           0       -7.642869    5.622119   -5.679464
     97          1           0       -9.364623    4.345524   -4.461143
     98          1           0       -9.934730    2.601610   -2.769918
     99          1           0       -9.161971    0.920901   -1.109385
    100          1           0       -5.183558    1.781334   -1.888751
    101          6           0       -1.603762    3.247427   -3.378931
    102          6           0       -0.761177    4.210678   -3.947563
    103          6           0        0.606836    4.090001   -3.834310
    104          6           0        1.159868    3.002859   -3.148763
    105          6           0        0.317375    2.035418   -2.587023
    106          6           0       -1.048797    2.156173   -2.700816
    107          1           0       -1.190865    5.049644   -4.473928
    108          1           0        1.255689    4.834172   -4.270916
    109          1           0        0.751155    1.194183   -2.070786
    110          1           0       -1.702174    1.410754   -2.277015
    111          6           0        2.553972    2.870367   -3.006963
    112          6           0        3.746088    2.731835   -2.857371
    113          6           0        5.118525    2.519779   -2.627112
    114          6           0        6.121365    3.217722   -3.316274
    115          6           0        7.446052    2.946129   -3.027557
    116          6           0        7.754954    1.995009   -2.064081
    117          7           0        6.799551    1.337206   -1.411063
    118          6           0        5.515133    1.578518   -1.672653
    119          1           0        5.853704    3.952730   -4.059445
    120          1           0        8.238641    3.465240   -3.541590
    121          1           0        8.779507    1.752403   -1.807529
    122          1           0        4.767364    1.012092   -1.107926
    123          6           0        3.048956   -3.556296   -3.344071
    124          6           0        4.249148   -3.673967   -3.445326
    125          6           0        5.627642   -3.882624   -3.630324
    126          6           0        6.055064   -4.844932   -4.529450
    127          6           0        7.416196   -5.082218   -4.740959
    128          6           0        8.371202   -4.366347   -4.061854
    129          6           0        7.983892   -3.378814   -3.138845
    130          6           0        8.918249   -2.608373   -2.408993
    131          6           0        8.479372   -1.664306   -1.527140
    132          7           0        7.157053   -1.434749   -1.322264
    133          6           0        6.255622   -2.130104   -1.981966
    134          6           0        6.600040   -3.124626   -2.911741
    135          1           0        5.322989   -5.420353   -5.074979
    136          1           0        7.712384   -5.840441   -5.449610
    137          1           0        9.420925   -4.551144   -4.226631
    138          1           0        9.972841   -2.776907   -2.558795
    139          1           0        9.180940   -1.054964   -0.950092
    140          1           0        5.212221   -1.908377   -1.783314
    141          6           0        1.653077   -3.420066   -3.225120
    142          6           0        0.808061   -4.225584   -3.998606
    143          6           0       -0.559956   -4.101750   -3.890075
    144          6           0       -1.111513   -3.169532   -3.004371
    145          6           0       -0.266413   -2.364077   -2.230664
    146          6           0        1.099680   -2.487590   -2.340316
    147          1           0        1.236219   -4.944330   -4.680735
    148          1           0       -1.210409   -4.722937   -4.486926
    149          1           0       -0.697639   -1.647486   -1.549419
    150          1           0        1.755261   -1.869300   -1.747889
    151          6           0       -2.506525   -3.030844   -2.879286
    152          6           0       -3.699935   -2.888608   -2.744041
    153          6           0       -5.075663   -2.674124   -2.537975
    154          6           0       -6.066302   -3.392496   -3.223944
    155          6           0       -7.395691   -3.119385   -2.959897
    156          6           0       -7.721398   -2.144446   -2.026039
    157          7           0       -6.777596   -1.465409   -1.377893
    158          6           0       -5.488898   -1.709870   -1.614126
    159          1           0       -5.785640   -4.144718   -3.944707
    160          1           0       -8.179310   -3.654999   -3.470919
    161          1           0       -8.750517   -1.900262   -1.789791
    162          1           0       -4.752633   -1.124065   -1.054060
 ---------------------------------------------------------------------

 SCF Done:  E(RPBE1PBE) =  -4377.36128236     a.u. after   23 cycles
 SCF Done:  E(RPBE1PBE) =  -4377.36139211     A.U. after   10 cycles

 The electronic state is 1-A.
 Alpha  occ. eigenvalues --  -14.49149 -14.49144 -14.49143 -14.49138 -14.48638
 Alpha  occ. eigenvalues --  -14.48633 -14.48633 -14.48625 -10.32641 -10.32640
 Alpha  occ. eigenvalues --  -10.32639 -10.32636 -10.32561 -10.32558 -10.32554
 Alpha  occ. eigenvalues --  -10.32540 -10.32139 -10.32138 -10.32135 -10.32133
 Alpha  occ. eigenvalues --  -10.31162 -10.31160 -10.31152 -10.31143 -10.30919
 Alpha  occ. eigenvalues --  -10.30914 -10.30911 -10.30910 -10.29917 -10.29914
 Alpha  occ. eigenvalues --  -10.29909 -10.29907 -10.29451 -10.29450 -10.29450
 Alpha  occ. eigenvalues --  -10.29449 -10.29272 -10.29271 -10.29269 -10.29259
 Alpha  occ. eigenvalues --  -10.29190 -10.29187 -10.29181 -10.29180 -10.28748
 Alpha  occ. eigenvalues --  -10.28740 -10.28729 -10.28714 -10.28707 -10.28699
 Alpha  occ. eigenvalues --  -10.28699 -10.28698 -10.28372 -10.28372 -10.28371
 Alpha  occ. eigenvalues --  -10.28368 -10.27918 -10.27916 -10.27909 -10.27904
 Alpha  occ. eigenvalues --  -10.27370 -10.27368 -10.27367 -10.27362 -10.27140
 Alpha  occ. eigenvalues --  -10.27137 -10.27134 -10.27133 -10.27053 -10.27025
 Alpha  occ. eigenvalues --  -10.27024 -10.27024 -10.26946 -10.26943 -10.26940
 Alpha  occ. eigenvalues --  -10.26939 -10.26748 -10.26678 -10.26675 -10.26674
 Alpha  occ. eigenvalues --  -10.26661 -10.26645 -10.26642 -10.26641 -10.26636
 Alpha  occ. eigenvalues --  -10.26635 -10.26627 -10.26619 -10.26616 -10.26610
 Alpha  occ. eigenvalues --  -10.26609 -10.26603 -10.26602 -10.26602 -10.26598
 Alpha  occ. eigenvalues --  -10.26595 -10.26564 -10.26540 -10.26535 -10.26530
 Alpha  occ. eigenvalues --  -10.26334 -10.26326 -10.26321 -10.26311  -3.57955
 Alpha  occ. eigenvalues --   -3.57942  -2.25900  -2.25885  -2.25858  -2.25852
 Alpha  occ. eigenvalues --   -2.21779  -2.21764  -1.04606  -1.04602  -1.04047
 Alpha  occ. eigenvalues --   -1.04042  -1.03538  -1.03536  -1.03365  -1.03363
 Alpha  occ. eigenvalues --   -0.92859  -0.92855  -0.92795  -0.92792  -0.92118
 Alpha  occ. eigenvalues --   -0.92080  -0.92076  -0.92071  -0.88910  -0.88902
 Alpha  occ. eigenvalues --   -0.88748  -0.88742  -0.86282  -0.86254  -0.86244
 Alpha  occ. eigenvalues --   -0.86237  -0.85107  -0.85033  -0.85021  -0.85017
 Alpha  occ. eigenvalues --   -0.84242  -0.84195  -0.84184  -0.84152  -0.83216
 Alpha  occ. eigenvalues --   -0.83200  -0.83074  -0.83070  -0.81500  -0.81473
 Alpha  occ. eigenvalues --   -0.81470  -0.81407  -0.79722  -0.79677  -0.79662
 Alpha  occ. eigenvalues --   -0.79645  -0.78971  -0.78939  -0.78926  -0.78869
 Alpha  occ. eigenvalues --   -0.76235  -0.76212  -0.76200  -0.76161  -0.72108
 Alpha  occ. eigenvalues --   -0.72043  -0.72030  -0.71997  -0.71616  -0.71379
 Alpha  occ. eigenvalues --   -0.71377  -0.71376  -0.69703  -0.69675  -0.69511
 Alpha  occ. eigenvalues --   -0.69507  -0.69504  -0.69324  -0.69255  -0.69253
 Alpha  occ. eigenvalues --   -0.68361  -0.68300  -0.68254  -0.68240  -0.66230
 Alpha  occ. eigenvalues --   -0.66185  -0.66172  -0.66167  -0.65568  -0.65537
 Alpha  occ. eigenvalues --   -0.65528  -0.65520  -0.62302  -0.62185  -0.61076
 Alpha  occ. eigenvalues --   -0.61068  -0.60377  -0.60307  -0.60063  -0.60055
 Alpha  occ. eigenvalues --   -0.58670  -0.58576  -0.58547  -0.58435  -0.58423
 Alpha  occ. eigenvalues --   -0.58350  -0.58183  -0.58181  -0.57512  -0.57451
 Alpha  occ. eigenvalues --   -0.56728  -0.56725  -0.56691  -0.56550  -0.56277
 Alpha  occ. eigenvalues --   -0.56275  -0.55916  -0.55869  -0.55855  -0.55793
 Alpha  occ. eigenvalues --   -0.54362  -0.54188  -0.54174  -0.54124  -0.52718
 Alpha  occ. eigenvalues --   -0.52618  -0.52432  -0.52425  -0.52181  -0.52181
 Alpha  occ. eigenvalues --   -0.51551  -0.51547  -0.51516  -0.51485  -0.51475
 Alpha  occ. eigenvalues --   -0.51462  -0.51092  -0.51065  -0.50560  -0.50556
 Alpha  occ. eigenvalues --   -0.50131  -0.50126  -0.49671  -0.49670  -0.49552
 Alpha  occ. eigenvalues --   -0.49549  -0.49459  -0.49458  -0.49029  -0.49027
 Alpha  occ. eigenvalues --   -0.48434  -0.48434  -0.48395  -0.48394  -0.48334
 Alpha  occ. eigenvalues --   -0.48329  -0.47628  -0.47562  -0.47552  -0.47525
 Alpha  occ. eigenvalues --   -0.47322  -0.47313  -0.47073  -0.47071  -0.46652
 Alpha  occ. eigenvalues --   -0.46478  -0.46459  -0.46300  -0.46241  -0.46232
 Alpha  occ. eigenvalues --   -0.44495  -0.44494  -0.44203  -0.43966  -0.43953
 Alpha  occ. eigenvalues --   -0.43885  -0.43849  -0.43752  -0.43582  -0.43577
 Alpha  occ. eigenvalues --   -0.43571  -0.43561  -0.43502  -0.42921  -0.42582
 Alpha  occ. eigenvalues --   -0.42577  -0.42332  -0.42322  -0.42064  -0.42063
 Alpha  occ. eigenvalues --   -0.41790  -0.41724  -0.41708  -0.41686  -0.40388
 Alpha  occ. eigenvalues --   -0.40328  -0.40323  -0.39755  -0.39741  -0.39643
 Alpha  occ. eigenvalues --   -0.39640  -0.39543  -0.39484  -0.39480  -0.39284
 Alpha  occ. eigenvalues --   -0.39256  -0.39236  -0.39158  -0.38755  -0.37898
 Alpha  occ. eigenvalues --   -0.37895  -0.37472  -0.37296  -0.37256  -0.36999
 Alpha  occ. eigenvalues --   -0.36571  -0.36568  -0.35892  -0.35337  -0.35244
 Alpha  occ. eigenvalues --   -0.34870  -0.34712  -0.34678  -0.34582  -0.34542
 Alpha  occ. eigenvalues --   -0.34205  -0.33409  -0.33385  -0.33057  -0.33035
 Alpha  occ. eigenvalues --   -0.32110  -0.31949  -0.31865  -0.31760  -0.31746
 Alpha  occ. eigenvalues --   -0.31595  -0.31458  -0.31439  -0.31388  -0.31337
 Alpha  occ. eigenvalues --   -0.31212  -0.31050  -0.30861  -0.30754  -0.30748
 Alpha  occ. eigenvalues --   -0.30566  -0.30058  -0.29944  -0.29917  -0.29811
 Alpha  occ. eigenvalues --   -0.29091  -0.29073  -0.27980  -0.27850  -0.27767
 Alpha  occ. eigenvalues --   -0.27559  -0.24512  -0.24434  -0.24388  -0.24292
 Alpha virt. eigenvalues --   -0.11034  -0.10972  -0.10903  -0.10589  -0.08948
 Alpha virt. eigenvalues --   -0.08939  -0.08900  -0.08485  -0.07581  -0.07568
 Alpha virt. eigenvalues --   -0.07105  -0.06809  -0.06430  -0.06365  -0.06316

 Mulliken charges:
               1
     1  Pd   0.478806
     2  Pd   0.478901
     3  C    0.020534
     4  C   -0.068664
     5  C   -0.012672
     6  C    0.006797
     7  C    0.015595
     8  C    0.007505
     9  C    0.029400
    10  C   -0.011157
    11  C    0.139609
    12  N   -0.326139
    13  C    0.182814
    14  C   -0.013676
    15  H    0.042675
    16  H    0.056417
    17  H    0.042255
    18  H    0.054488
    19  H    0.114907
    20  H    0.078186
    21  C   -0.072396
    22  C    0.014514
    23  C    0.019701
    24  C   -0.075617
    25  C    0.016608
    26  C    0.014278
    27  H    0.040261
    28  H    0.040049
    29  H    0.031779
    30  H    0.035909
    31  C    0.011391
    32  C   -0.002388
    33  C   -0.118751
    34  C    0.113737
    35  C   -0.039260
    36  C    0.158617
    37  N   -0.318983
    38  C    0.179273
    39  H    0.064150
    40  H    0.072946
    41  H    0.100609
    42  H    0.112164
    43  C    0.021003
    44  C   -0.068944
    45  C   -0.011701
    46  C    0.005929
    47  C    0.015776
    48  C    0.007388
    49  C    0.029559
    50  C   -0.010468
    51  C    0.137846
    52  N   -0.327731
    53  C    0.183016
    54  C   -0.013653
    55  H    0.042744
    56  H    0.056432
    57  H    0.042274
    58  H    0.054500
    59  H    0.115403
    60  H    0.078696
    61  C   -0.071056
    62  C    0.013206
    63  C    0.020877
    64  C   -0.077083
    65  C    0.017612
    66  C    0.014045
    67  H    0.040558
    68  H    0.040203
    69  H    0.033398
    70  H    0.036769
    71  C    0.012263
    72  C   -0.003248
    73  C   -0.116742
    74  C    0.113120
    75  C   -0.038735
    76  C    0.158083
    77  N   -0.318847
    78  C    0.175312
    79  H    0.064037
    80  H    0.072829
    81  H    0.101079
    82  H    0.113778
    83  C    0.020126
    84  C   -0.068482
    85  C   -0.011806
    86  C    0.006181
    87  C    0.015754
    88  C    0.007490
    89  C    0.029455
    90  C   -0.010889
    91  C    0.138775
    92  N   -0.327148
    93  C    0.183224
    94  C   -0.013801
    95  H    0.042741
    96  H    0.056420
    97  H    0.042291
    98  H    0.054539
    99  H    0.114558
   100  H    0.078195
   101  C   -0.070641
   102  C    0.013697
   103  C    0.019916
   104  C   -0.075291
   105  C    0.016232
   106  C    0.012778
   107  H    0.040413
   108  H    0.040130
   109  H    0.033994
   110  H    0.036912
   111  C    0.011844
   112  C   -0.003227
   113  C   -0.117311
   114  C    0.113076
   115  C   -0.038896
   116  C    0.158272
   117  N   -0.319137
   118  C    0.177036
   119  H    0.064164
   120  H    0.072862
   121  H    0.101152
   122  H    0.112759
   123  C    0.018774
   124  C   -0.067478
   125  C   -0.010877
   126  C    0.005992
   127  C    0.015649
   128  C    0.007497
   129  C    0.029827
   130  C   -0.011419
   131  C    0.140192
   132  N   -0.326285
   133  C    0.183908
   134  C   -0.015256
   135  H    0.042726
   136  H    0.056437
   137  H    0.042231
   138  H    0.054450
   139  H    0.115643
   140  H    0.076811
   141  C   -0.069359
   142  C    0.014123
   143  C    0.020369
   144  C   -0.074914
   145  C    0.010422
   146  C    0.010369
   147  H    0.040476
   148  H    0.040204
   149  H    0.040458
   150  H    0.042629
   151  C    0.010508
   152  C   -0.001502
   153  C   -0.117431
   154  C    0.113296
   155  C   -0.039691
   156  C    0.158797
   157  N   -0.318438
   158  C    0.178998
   159  H    0.064196
   160  H    0.073042
   161  H    0.100141
   162  H    0.111427
 Sum of Mulliken charges =   4.00000

 Dipole moment (field-independent basis, Debye):
    X=              0.0615    Y=              0.0909    Z=              0.0319  Tot=              0.1143
 Quadrupole moment (field-independent basis, Debye-Ang):
   XX=            460.0771   YY=           -417.7433   ZZ=           -422.2975
   XY=              1.9033   XZ=              2.7309   YZ=              2.4471

 Normal termination of Gaussian 16 at Fri Feb 26 12:43:49 2021.
