 Gaussian 16, Revision C.01,
 Gaussian 16:  ES64L-G16RevC.01  3-Jul-2019

 ------------------------------------------------------------------
 # SP PBE1PBE/def2svp empiricaldispersion=GD3BJ scrf=(solvent=dmso)
 ------------------------------------------------------------------

 -----
 m2_ld
 -----
 Symbolic Z-matrix:
 Charge =  4 Multiplicity = 1

                         Standard orientation:
 ---------------------------------------------------------------------
 Center     Atomic      Atomic             Coordinates (Angstroms)
 Number     Number       Type             X           Y           Z
 ---------------------------------------------------------------------
      1         46           0        9.952498    0.763599   -0.673498
      2         46           0      -10.002902    0.887095   -0.006298
      3          6           0      -10.672803    2.555695    3.860102
      4          6           0       -9.596403    2.063995    4.639502
      5          6           0       -8.635502    1.222395    3.998302
      6          6           0       -7.526002    0.698996    4.738402
      7          6           0       -7.407602    1.062496    6.068202
      8          6           0       -8.354902    1.897795    6.698602
      9          6           0       -9.438103    2.387795    6.007202
     10          6           0       -6.507702   -0.184104    4.126002
     11          6           0       -6.849102   -1.349304    3.419102
     12          6           0       -5.868602   -2.169704    2.874402
     13          6           0       -4.505002   -1.856004    3.027702
     14          6           0       -3.476602   -2.668004    2.469202
     15          6           0       -2.559302   -3.328604    2.004502
     16          6           0       -1.452901   -4.003503    1.453602
     17          6           0       -1.324401   -5.322103    1.034202
     18          6           0       -0.054201   -5.609003    0.496802
     19          6           0        0.795899   -4.509403    0.495402
     20          6           0        2.081099   -4.348203   -0.056498
     21          6           0        3.145299   -4.083702   -0.597298
     22          6           0        4.279999   -3.663902   -1.347898
     23          6           0        4.543098   -2.287102   -1.477498
     24          6           0        5.538198   -1.826202   -2.328998
     25          6           0        6.311598   -2.725502   -3.081998
     26          6           0        7.213598   -2.257302   -4.161498
     27          6           0        8.204398   -1.234402   -3.992798
     28          6           0        8.946498   -0.762001   -5.120898
     29          6           0        9.903498    0.260599   -4.908498
     30          6           0       10.135098    0.735399   -3.646098
     31          7           0        9.471198    0.231599   -2.571198
     32          6           0        8.544298   -0.700502   -2.732298
     33          6           0        8.725498   -1.332901   -6.395698
     34          6           0        7.810198   -2.349402   -6.532198
     35          6           0        7.060298   -2.801502   -5.425598
     36          6           0        6.094699   -4.101802   -2.895398
     37          6           0        5.101599   -4.569502   -2.043998
     38         16           0        0.014998   -3.126203    1.183402
     39          6           0       -4.163002   -0.699104    3.753102
     40          6           0       -5.147202    0.119796    4.285702
     41          6           0       -8.812602    0.971295    2.622302
     42          7           0       -9.834402    1.446195    1.930902
     43          6           0      -10.767503    2.231895    2.533402
     44          1           0      -11.428003    3.198895    4.314302
     45          1           0       -6.571602    0.672496    6.652702
     46          1           0       -8.223803    2.145295    7.754202
     47          1           0      -10.176503    3.027095    6.494902
     48          1           0       -7.897802   -1.637604    3.312602
     49          1           0       -6.158402   -3.065004    2.324102
     50          1           0       -2.138701   -6.043103    1.108902
     51          1           0        0.238799   -6.579303    0.095602
     52          1           0        3.908998   -1.581002   -0.943098
     53          1           0        5.663898   -0.748202   -2.459698
     54          1           0       10.469998    0.661999   -5.750198
     55          1           0       10.868098    1.516999   -3.442998
     56          1           0        8.057598   -1.076102   -1.829598
     57          1           0        9.292598   -0.963901   -7.252198
     58          1           0        7.638998   -2.804502   -7.509998
     59          1           0        6.307398   -3.577202   -5.579498
     60          1           0        6.705399   -4.819602   -3.447598
     61          1           0        4.935699   -5.643002   -1.937498
     62          1           0       -3.113502   -0.435604    3.878002
     63          1           0       -4.857102    1.024796    4.823902
     64          1           0       -8.087302    0.364696    2.077602
     65          1           0      -11.581103    2.593395    1.903702
     66          6           0       -9.395703    4.496595   -2.129498
     67          6           0       -8.051403    4.859796   -1.870598
     68          6           0       -7.295503    4.043396   -0.972198
     69          6           0       -5.916803    4.341796   -0.722798
     70          6           0       -5.378303    5.465396   -1.329798
     71          6           0       -6.136603    6.287596   -2.188298
     72          6           0       -7.448503    5.988396   -2.472298
     73          6           0       -5.024103    3.478996    0.078402
     74          6           0       -4.068903    4.073596    0.918602
     75          6           0       -3.094303    3.312496    1.542702
     76          6           0       -3.051202    1.921096    1.349502
     77          6           0       -1.993202    1.157197    1.911702
     78          6           0       -1.064202    0.516697    2.370702
     79          6           0        0.018698   -0.233103    2.861602
     80          6           0        0.058098   -1.076703    3.958602
     81          6           0        1.309398   -1.702803    4.125402
     82          6           0        2.226098   -1.344103    3.153102
     83          6           0        3.539198   -1.820102    2.979402
     84          6           0        4.662898   -2.259802    2.807002
     85          6           0        5.954398   -2.801402    2.549702
     86          6           0        6.082899   -3.950102    1.749602
     87          6           0        7.340699   -4.434002    1.414302
     88          6           0        8.495499   -3.785602    1.868902
     89          6           0        9.824699   -4.190301    1.360002
     90          6           0       10.578898   -3.251701    0.589302
     91          6           0       11.862498   -3.597901    0.074502
     92          6           0       12.553798   -2.614901   -0.678398
     93          6           0       11.983898   -1.388901   -0.899398
     94          7           0       10.745698   -1.084401   -0.418298
     95          6           0       10.070098   -1.974401    0.281702
     96          6           0       12.374899   -4.893301    0.323002
     97          6           0       11.623799   -5.795901    1.041602
     98          6           0       10.352699   -5.450101    1.555902
     99          6           0        8.365098   -2.676402    2.720002
    100          6           0        7.111798   -2.184502    3.055702
    101         16           0        1.539298   -0.212303    2.028802
    102          6           0       -4.033902    1.311396    0.552902
    103          6           0       -5.001803    2.082996   -0.073898
    104          6           0       -7.966103    2.958896   -0.366098
    105          7           0       -9.214103    2.635095   -0.658798
    106          6           0       -9.933303    3.388095   -1.536398
    107          1           0      -10.001703    5.092495   -2.813498
    108          1           0       -4.321003    5.692496   -1.180398
    109          1           0       -5.660203    7.154696   -2.650298
    110          1           0       -8.033103    6.604596   -3.157898
    111          1           0       -4.085003    5.154296    1.072702
    112          1           0       -2.342003    3.791097    2.171802
    113          1           0       -0.801602   -1.237303    4.608902
    114          1           0        1.544098   -2.413003    4.917902
    115          1           0        5.185499   -4.438302    1.366302
    116          1           0        7.430999   -5.297302    0.751202
    117          1           0       13.541398   -2.831801   -1.088398
    118          1           0       12.489198   -0.609301   -1.471298
    119          1           0        9.077798   -1.681301    0.626102
    120          1           0       13.359099   -5.163901   -0.064098
    121          1           0       12.014699   -6.798301    1.229002
    122          1           0        9.788199   -6.185101    2.133602
    123          1           0        9.258798   -2.177601    3.103802
    124          1           0        7.023198   -1.306502    3.698102
    125          1           0       -4.005302    0.231996    0.393402
    126          1           0       -5.698902    1.591996   -0.753098
    127          1           0       -7.458003    2.338096    0.372802
    128          1           0      -10.953503    3.059795   -1.736498
    129          6           0      -11.056902   -1.084205   -3.644298
    130          6           0       -9.843202   -1.137505   -4.374698
    131          6           0       -8.725902   -0.415105   -3.856998
    132          6           0       -7.476602   -0.418604   -4.555398
    133          6           0       -7.370602   -1.195704   -5.693598
    134          6           0       -8.471802   -1.925205   -6.194398
    135          6           0       -9.694702   -1.886505   -5.565198
    136          6           0       -6.321302    0.379196   -4.082598
    137          6           0       -6.405702    1.775996   -3.962798
    138          6           0       -5.314003    2.524296   -3.539698
    139          6           0       -4.106202    1.888796   -3.195598
    140          6           0       -3.010903    2.609096   -2.642298
    141          6           0       -2.082103    3.172297   -2.084398
    142          6           0       -1.000203    3.758797   -1.402098
    143          6           0       -0.606903    5.089297   -1.353498
    144          6           0        0.536697    5.298697   -0.557698
    145          6           0        1.024197    4.131097    0.013302
    146          6           0        2.152497    3.938997    0.833002
    147          6           0        3.134797    3.696398    1.516902
    148          6           0        4.299497    3.301098    2.233602
    149          6           0        4.270397    2.129098    3.011702
    150          6           0        5.423898    1.656098    3.622202
    151          6           0        6.646097    2.326198    3.467202
    152          6           0        7.864398    1.823598    4.145902
    153          6           0        9.051498    1.480699    3.422602
    154          6           0       10.230398    1.081499    4.123102
    155          6           0       11.381598    0.774899    3.355602
    156          6           0       11.325398    0.804899    1.988402
    157          7           0       10.172998    1.110299    1.329602
    158          6           0        9.091298    1.447199    2.013202
    159          6           0       10.203598    0.987699    5.534102
    160          6           0        9.037998    1.263899    6.210402
    161          6           0        7.877798    1.680898    5.520902
    162          6           0        6.671297    3.507898    2.708002
    163          6           0        5.515997    3.998998    2.111102
    164         16           0        0.053097    2.766497   -0.443898
    165          6           0       -4.014702    0.491896   -3.339598
    166          6           0       -5.103002   -0.246904   -3.782498
    167          6           0       -8.883702    0.221195   -2.608698
    168          7           0      -10.018902    0.207395   -1.930398
    169          6           0      -11.114302   -0.412405   -2.453098
    170          1           0      -11.945502   -1.594005   -4.019498
    171          1           0       -6.422002   -1.221004   -6.234098
    172          1           0       -8.346602   -2.513905   -7.105698
    173          1           0      -10.550502   -2.435205   -5.963098
    174          1           0       -7.337903    2.286796   -4.216898
    175          1           0       -5.396403    3.608796   -3.457298
    176          1           0       -1.139703    5.876597   -1.887098
    177          1           0        1.005997    6.269297   -0.396698
    178          1           0        3.334098    1.578798    3.112702
    179          1           0        5.379198    0.738298    4.213002
    180          1           0       12.313198    0.498099    3.851502
    181          1           0       12.191498    0.564799    1.371102
    182          1           0        8.191698    1.674698    1.439602
    183          1           0       11.106698    0.685799    6.068002
    184          1           0        9.005898    1.179799    7.298702
    185          1           0        6.978798    1.927898    6.089602
    186          1           0        7.607997    4.059498    2.595302
    187          1           0        5.554997    4.916498    1.521602
    188          1           0       -3.083702   -0.012004   -3.077598
    189          1           0       -5.011502   -1.331504   -3.876598
    190          1           0       -8.034702    0.725796   -2.147098
    191          1           0      -12.029902   -0.365205   -1.862798
    192          6           0      -12.635502   -2.180305    1.360702
    193          6           0      -11.898102   -3.380405    1.199902
    194          6           0      -10.566002   -3.279005    0.697202
    195          6           0       -9.779101   -4.457905    0.489102
    196          6           0      -10.326401   -5.677305    0.838002
    197          6           0      -11.638801   -5.774005    1.352302
    198          6           0      -12.421101   -4.654805    1.522202
    199          6           0       -8.409001   -4.348905   -0.057698
    200          6           0       -8.163001   -3.655905   -1.254098
    201          6           0       -6.865702   -3.420604   -1.686698
    202          6           0       -5.773301   -3.891204   -0.936598
    203          6           0       -4.437102   -3.549904   -1.292698
    204          6           0       -3.284202   -3.231104   -1.528698
    205          6           0       -1.955802   -2.838003   -1.778898
    206          6           0       -0.929402   -3.581403   -2.334098
    207          6           0        0.278298   -2.862203   -2.438298
    208          6           0        0.179498   -1.569403   -1.956298
    209          6           0        1.183398   -0.587703   -1.883698
    210          6           0        2.041098    0.274597   -1.809998
    211          6           0        3.048298    1.274097   -1.721698
    212          6           0        4.054698    1.188598   -0.746198
    213          6           0        5.034497    2.164398   -0.663398
    214          6           0        5.027597    3.270098   -1.526898
    215          6           0        5.988197    4.377898   -1.354698
    216          6           0        7.383597    4.155898   -1.123598
    217          6           0        8.244697    5.257598   -0.830398
    218          6           0        9.606897    4.979299   -0.556898
    219          6           0       10.059497    3.688699   -0.568998
    220          7           0        9.235597    2.649199   -0.883598
    221          6           0        7.966797    2.871398   -1.177098
    222          6           0        7.721497    6.571198   -0.820998
    223          6           0        6.387697    6.772498   -1.091698
    224          6           0        5.527897    5.683698   -1.347498
    225          6           0        4.016797    3.354998   -2.496698
    226          6           0        3.044997    2.371497   -2.600498
    227         16           0       -1.418602   -1.237603   -1.367998
    228          6           0       -6.019601   -4.665904    0.211002
    229          6           0       -7.321401   -4.887704    0.643402
    230          6           0      -10.061402   -1.985905    0.446102
    231          7           0      -10.786002   -0.891505    0.590902
    232          6           0      -12.068502   -0.975205    1.042202
    233          1           0      -13.659402   -2.212905    1.736302
    234          1           0       -9.741601   -6.587605    0.689402
    235          1           0      -12.037301   -6.759205    1.603902
    236          1           0      -13.440201   -4.733805    1.905402
    237          1           0       -9.001402   -3.288205   -1.850098
    238          1           0       -6.692102   -2.854504   -2.603598
    239          1           0       -1.061001   -4.616203   -2.649098
    240          1           0        1.206998   -3.266703   -2.839198
    241          1           0        4.048198    0.370298   -0.024798
    242          1           0        5.774797    2.096598    0.133102
    243          1           0       10.296197    5.792199   -0.323798
    244          1           0       11.094097    3.434799   -0.333998
    245          1           0        7.370997    2.003898   -1.463798
    246          1           0        8.383797    7.408998   -0.595198
    247          1           0        5.975596    7.783698   -1.085198
    248          1           0        4.462997    5.872598   -1.497698
    249          1           0        3.999997    4.201998   -3.185598
    250          1           0        2.266097    2.446997   -3.360998
    251          1           0       -5.175301   -5.051404    0.785802
    252          1           0       -7.497601   -5.444404    1.566702
    253          1           0       -9.030302   -1.853905    0.116602
    254          1           0      -12.612802   -0.034705    1.139702
 ---------------------------------------------------------------------

 SCF Done:  E(RPBE1PBE) =  -8118.66198136     A.U. after   21 cycles

 The electronic state is 1-A.
 Alpha  occ. eigenvalues --  -89.06242 -89.05947 -89.05719 -89.05608 -14.48384
 Alpha  occ. eigenvalues --  -14.48340 -14.48311 -14.48305 -14.48293 -14.48252
 Alpha  occ. eigenvalues --  -14.48248 -14.48220 -10.32455 -10.32381 -10.32369
 Alpha  occ. eigenvalues --  -10.32360 -10.32352 -10.32257 -10.32210 -10.32162
 Alpha  occ. eigenvalues --  -10.30953 -10.30943 -10.30915 -10.30908 -10.30895
 Alpha  occ. eigenvalues --  -10.30863 -10.30858 -10.30810 -10.30450 -10.30442
 Alpha  occ. eigenvalues --  -10.30249 -10.30246 -10.30198 -10.30084 -10.30078
 Alpha  occ. eigenvalues --  -10.30043 -10.29165 -10.29115 -10.29103 -10.29099
 Alpha  occ. eigenvalues --  -10.29083 -10.29072 -10.29071 -10.29031 -10.29030
 Alpha  occ. eigenvalues --  -10.29003 -10.28990 -10.28941 -10.28931 -10.28922
 Alpha  occ. eigenvalues --  -10.28922 -10.28791 -10.28694 -10.28645 -10.28635
 Alpha  occ. eigenvalues --  -10.28633 -10.28613 -10.28600 -10.28580 -10.28559
 Alpha  occ. eigenvalues --  -10.28549 -10.28539 -10.28528 -10.28474 -10.28472
 Alpha  occ. eigenvalues --  -10.28440 -10.28357 -10.28202 -10.27909 -10.27876
 Alpha  occ. eigenvalues --  -10.27867 -10.27857 -10.27842 -10.27813 -10.27804
 Alpha  occ. eigenvalues --  -10.27747 -10.27746 -10.27653 -10.27628 -10.27616
 Alpha  occ. eigenvalues --  -10.27579 -10.27556 -10.27551 -10.27493 -10.27222
 Alpha  occ. eigenvalues --  -10.27202 -10.27186 -10.27178 -10.27172 -10.27157
 Alpha  occ. eigenvalues --  -10.27081 -10.27063 -10.26960 -10.26957 -10.26953
 Alpha  occ. eigenvalues --  -10.26950 -10.26944 -10.26943 -10.26882 -10.26842
 Alpha  occ. eigenvalues --  -10.26841 -10.26829 -10.26809 -10.26803 -10.26802
 Alpha  occ. eigenvalues --  -10.26795 -10.26728 -10.26719 -10.26717 -10.26665
 Alpha  occ. eigenvalues --  -10.26664 -10.26657 -10.26645 -10.26580 -10.26576
 Alpha  occ. eigenvalues --  -10.26566 -10.26527 -10.26489 -10.26487 -10.26485
 Alpha  occ. eigenvalues --  -10.26474 -10.26469 -10.26456 -10.26455 -10.26450
 Alpha  occ. eigenvalues --  -10.26448 -10.26423 -10.26418 -10.26416 -10.26415
 Alpha  occ. eigenvalues --  -10.26398 -10.26378 -10.26362 -10.26354 -10.26354
 Alpha  occ. eigenvalues --  -10.26336 -10.26330 -10.26321 -10.26318 -10.26315
 Alpha  occ. eigenvalues --  -10.26313 -10.26312 -10.26309 -10.26303 -10.26300
 Alpha  occ. eigenvalues --  -10.26288 -10.26287 -10.26272 -10.26268 -10.26253
 Alpha  occ. eigenvalues --  -10.26253 -10.26247 -10.26209 -10.26203 -10.26180
 Alpha  occ. eigenvalues --  -10.26168 -10.26149 -10.26140 -10.26133 -10.26131
 Alpha  occ. eigenvalues --  -10.26098 -10.26039 -10.26003 -10.25994  -8.06215
 Alpha  occ. eigenvalues --   -8.05918  -8.05723  -8.05527  -6.00359  -6.00065
 Alpha  occ. eigenvalues --   -5.99974  -5.99869  -5.99681  -5.99676  -5.99655
 Alpha  occ. eigenvalues --   -5.99477  -5.99353  -5.99284  -5.99156  -5.98972
 Alpha  occ. eigenvalues --   -3.56871  -3.56841  -2.24745  -2.24727  -2.24679
 Alpha  occ. eigenvalues --   -2.24604  -2.20545  -2.20506  -1.03273  -1.03253
 Alpha  occ. eigenvalues --   -1.02646  -1.02641  -1.02575  -1.02489  -1.02406
 Alpha  occ. eigenvalues --   -1.02385  -0.93865  -0.93620  -0.93415  -0.93122
 Alpha  occ. eigenvalues --   -0.92649  -0.92641  -0.92588  -0.92577  -0.92456
 Alpha  occ. eigenvalues --   -0.92455  -0.92403  -0.92397  -0.90559  -0.90535
 Alpha  occ. eigenvalues --   -0.90489  -0.90431  -0.90360  -0.90325  -0.90318
 Alpha  occ. eigenvalues --   -0.90257  -0.85636  -0.85590  -0.85555  -0.85521
 Alpha  occ. eigenvalues --   -0.85507  -0.85448  -0.85444  -0.85377  -0.83598
 Alpha  occ. eigenvalues --   -0.83493  -0.83403  -0.83308  -0.82846  -0.82756
 Alpha  occ. eigenvalues --   -0.82729  -0.82633  -0.82517  -0.82407  -0.82354
 Alpha  occ. eigenvalues --   -0.82297  -0.82177  -0.82116  -0.82088  -0.82078
 Alpha  occ. eigenvalues --   -0.81453  -0.81414  -0.81342  -0.81292  -0.79582
 Alpha  occ. eigenvalues --   -0.79502  -0.79457  -0.79448  -0.78997  -0.78894
 Alpha  occ. eigenvalues --   -0.78855  -0.78732  -0.78691  -0.78678  -0.78621
 Alpha  occ. eigenvalues --   -0.78568  -0.78145  -0.78107  -0.78079  -0.78043
 Alpha  occ. eigenvalues --   -0.77981  -0.77877  -0.77793  -0.77662  -0.76164
 Alpha  occ. eigenvalues --   -0.76108  -0.75994  -0.75887  -0.73800  -0.73705
 Alpha  occ. eigenvalues --   -0.73662  -0.73629  -0.70751  -0.70672  -0.70601
 Alpha  occ. eigenvalues --   -0.70574  -0.70508  -0.70458  -0.70435  -0.70396
 Alpha  occ. eigenvalues --   -0.69223  -0.69144  -0.69100  -0.69064  -0.68855
 Alpha  occ. eigenvalues --   -0.68752  -0.68707  -0.68671  -0.68197  -0.68139
 Alpha  occ. eigenvalues --   -0.68042  -0.67927  -0.67464  -0.67452  -0.67371
 Alpha  occ. eigenvalues --   -0.67287  -0.65008  -0.64927  -0.64804  -0.64784
 Alpha  occ. eigenvalues --   -0.64684  -0.64663  -0.64597  -0.64455  -0.64415
 Alpha  occ. eigenvalues --   -0.64311  -0.64276  -0.64228  -0.63347  -0.63200
 Alpha  occ. eigenvalues --   -0.63179  -0.63103  -0.62625  -0.62469  -0.62396
 Alpha  occ. eigenvalues --   -0.62322  -0.61139  -0.60937  -0.60935  -0.60886
 Alpha  occ. eigenvalues --   -0.58462  -0.58434  -0.58203  -0.58178  -0.58111
 Alpha  occ. eigenvalues --   -0.58074  -0.58023  -0.58013  -0.57762  -0.57710
 Alpha  occ. eigenvalues --   -0.57314  -0.57292  -0.57286  -0.57274  -0.57190
 Alpha  occ. eigenvalues --   -0.57178  -0.56906  -0.56846  -0.56817  -0.56751
 Alpha  occ. eigenvalues --   -0.56662  -0.56645  -0.56609  -0.56552  -0.56260
 Alpha  occ. eigenvalues --   -0.56150  -0.56101  -0.56020  -0.55699  -0.55543
 Alpha  occ. eigenvalues --   -0.55485  -0.55372  -0.55368  -0.55353  -0.55306
 Alpha  occ. eigenvalues --   -0.55260  -0.51942  -0.51868  -0.51729  -0.51674
 Alpha  occ. eigenvalues --   -0.51566  -0.51561  -0.51442  -0.51420  -0.50972
 Alpha  occ. eigenvalues --   -0.50924  -0.50884  -0.50777  -0.50634  -0.50618
 Alpha  occ. eigenvalues --   -0.50583  -0.50516  -0.50287  -0.50265  -0.50137
 Alpha  occ. eigenvalues --   -0.50136  -0.50065  -0.50049  -0.49937  -0.49885
 Alpha  occ. eigenvalues --   -0.49789  -0.49763  -0.49524  -0.49478  -0.49257
 Alpha  occ. eigenvalues --   -0.49228  -0.49126  -0.49115  -0.49095  -0.49032
 Alpha  occ. eigenvalues --   -0.48865  -0.48739  -0.48692  -0.48549  -0.47933
 Alpha  occ. eigenvalues --   -0.47901  -0.47843  -0.47770  -0.47765  -0.47726
 Alpha  occ. eigenvalues --   -0.47571  -0.47518  -0.47472  -0.47423  -0.47322
 Alpha  occ. eigenvalues --   -0.47172  -0.46893  -0.46822  -0.46786  -0.46761
 Alpha  occ. eigenvalues --   -0.46735  -0.46574  -0.46525  -0.46458  -0.46339
 Alpha  occ. eigenvalues --   -0.46308  -0.46004  -0.45971  -0.45825  -0.45769
 Alpha  occ. eigenvalues --   -0.45672  -0.45646  -0.45603  -0.45468  -0.45418
 Alpha  occ. eigenvalues --   -0.45359  -0.45325  -0.45244  -0.45213  -0.45198
 Alpha  occ. eigenvalues --   -0.45096  -0.44968  -0.44909  -0.44474  -0.44245
 Alpha  occ. eigenvalues --   -0.44071  -0.44052  -0.44001  -0.43984  -0.43768
 Alpha  occ. eigenvalues --   -0.43496  -0.43353  -0.43339  -0.43313  -0.43290
 Alpha  occ. eigenvalues --   -0.43263  -0.43262  -0.42954  -0.42739  -0.42562
 Alpha  occ. eigenvalues --   -0.42482  -0.42377  -0.42308  -0.42237  -0.42197
 Alpha  occ. eigenvalues --   -0.42077  -0.42011  -0.41990  -0.41940  -0.41791
 Alpha  occ. eigenvalues --   -0.41674  -0.41597  -0.41557  -0.41469  -0.41370
 Alpha  occ. eigenvalues --   -0.41294  -0.41226  -0.41150  -0.40957  -0.40883
 Alpha  occ. eigenvalues --   -0.40817  -0.40753  -0.40573  -0.40489  -0.40404
 Alpha  occ. eigenvalues --   -0.40370  -0.39513  -0.39482  -0.39352  -0.39325
 Alpha  occ. eigenvalues --   -0.38865  -0.38647  -0.38565  -0.38492  -0.38418
 Alpha  occ. eigenvalues --   -0.38267  -0.38180  -0.38120  -0.38106  -0.37997
 Alpha  occ. eigenvalues --   -0.37986  -0.37855  -0.37831  -0.37792  -0.37719
 Alpha  occ. eigenvalues --   -0.37662  -0.37640  -0.37572  -0.37547  -0.37521
 Alpha  occ. eigenvalues --   -0.37200  -0.36799  -0.36417  -0.36320  -0.36188
 Alpha  occ. eigenvalues --   -0.36085  -0.35985  -0.35947  -0.35878  -0.35710
 Alpha  occ. eigenvalues --   -0.35448  -0.35272  -0.35085  -0.35001  -0.34832
 Alpha  occ. eigenvalues --   -0.34659  -0.34495  -0.34444  -0.33988  -0.33803
 Alpha  occ. eigenvalues --   -0.33726  -0.33678  -0.33453  -0.33398  -0.33319
 Alpha  occ. eigenvalues --   -0.33137  -0.33095  -0.32994  -0.32316  -0.31857
 Alpha  occ. eigenvalues --   -0.31294  -0.31177  -0.31115  -0.31097  -0.31082
 Alpha  occ. eigenvalues --   -0.30948  -0.30922  -0.30756  -0.30509  -0.30500
 Alpha  occ. eigenvalues --   -0.30467  -0.30316  -0.30018  -0.29921  -0.29482
 Alpha  occ. eigenvalues --   -0.29389  -0.29332  -0.29289  -0.29225  -0.29195
 Alpha  occ. eigenvalues --   -0.29162  -0.28967  -0.28788  -0.28732  -0.28700
 Alpha  occ. eigenvalues --   -0.28679  -0.28457  -0.28361  -0.28277  -0.28234
 Alpha  occ. eigenvalues --   -0.28059  -0.27890  -0.27847  -0.27435  -0.26849
 Alpha  occ. eigenvalues --   -0.26776  -0.25906  -0.25837  -0.25732  -0.25575
 Alpha  occ. eigenvalues --   -0.25353  -0.25265  -0.24046  -0.23678  -0.22569
 Alpha  occ. eigenvalues --   -0.22394
 Alpha virt. eigenvalues --   -0.09934  -0.09865  -0.09772  -0.09680  -0.09431
 Alpha virt. eigenvalues --   -0.09330  -0.09310  -0.09203  -0.08338  -0.08176
 Alpha virt. eigenvalues --   -0.07898  -0.07775  -0.07294  -0.07274  -0.06450

 Mulliken charges:
               1
     1  Pd   0.481302
     2  Pd   0.480317
     3  C   -0.032822
     4  C    0.029096
     5  C   -0.017387
     6  C    0.050769
     7  C   -0.033578
     8  C    0.006505
     9  C   -0.005738
    10  C   -0.036982
    11  C   -0.038210
    12  C   -0.000276
    13  C   -0.068751
    14  C   -0.025275
    15  C    0.038497
    16  C   -0.186977
    17  C    0.028207
    18  C    0.033127
    19  C   -0.193819
    20  C    0.073666
    21  C   -0.054067
    22  C   -0.093777
    23  C    0.005722
    24  C   -0.023961
    25  C   -0.030779
    26  C    0.048701
    27  C   -0.023077
    28  C    0.027084
    29  C   -0.031509
    30  C    0.138617
    31  N   -0.334053
    32  C    0.151481
    33  C   -0.005615
    34  C    0.006928
    35  C   -0.031124
    36  C   -0.025713
    37  C    0.008819
    38  S    0.196306
    39  C    0.005244
    40  C   -0.014254
    41  C    0.140262
    42  N   -0.326088
    43  C    0.139376
    44  H    0.060774
    45  H    0.048449
    46  H    0.059890
    47  H    0.047183
    48  H    0.048584
    49  H    0.028223
    50  H    0.048457
    51  H    0.046073
    52  H    0.020481
    53  H    0.050881
    54  H    0.060612
    55  H    0.104306
    56  H    0.093114
    57  H    0.047199
    58  H    0.059653
    59  H    0.050086
    60  H    0.043370
    61  H    0.040631
    62  H    0.032957
    63  H    0.038641
    64  H    0.104198
    65  H    0.099964
    66  C   -0.028914
    67  C    0.033478
    68  C   -0.018524
    69  C    0.047503
    70  C   -0.051182
    71  C    0.012712
    72  C   -0.007289
    73  C    0.007251
    74  C   -0.035566
    75  C    0.021159
    76  C   -0.099279
    77  C   -0.047130
    78  C    0.064538
    79  C   -0.203216
    80  C    0.026957
    81  C    0.051586
    82  C   -0.214862
    83  C    0.053862
    84  C   -0.039731
    85  C   -0.084586
    86  C    0.018272
    87  C    0.009205
    88  C   -0.067650
    89  C    0.038166
    90  C   -0.018653
    91  C    0.036701
    92  C   -0.029393
    93  C    0.133728
    94  N   -0.327749
    95  C    0.142260
    96  C   -0.004735
    97  C    0.002966
    98  C   -0.022212
    99  C   -0.045676
   100  C    0.008952
   101  S    0.186905
   102  C    0.009640
   103  C   -0.024718
   104  C    0.129019
   105  N   -0.324626
   106  C    0.139238
   107  H    0.060935
   108  H    0.051187
   109  H    0.059275
   110  H    0.047885
   111  H    0.041049
   112  H    0.037455
   113  H    0.056080
   114  H    0.049895
   115  H    0.041430
   116  H    0.040824
   117  H    0.061041
   118  H    0.105136
   119  H    0.123970
   120  H    0.047412
   121  H    0.061071
   122  H    0.045775
   123  H    0.051527
   124  H    0.039789
   125  H    0.032295
   126  H    0.045768
   127  H    0.090763
   128  H    0.109838
   129  C   -0.029343
   130  C    0.023384
   131  C   -0.009951
   132  C    0.019300
   133  C   -0.015480
   134  C    0.004569
   135  C   -0.001274
   136  C   -0.058371
   137  C   -0.022978
   138  C    0.003477
   139  C   -0.082226
   140  C   -0.025468
   141  C    0.054852
   142  C   -0.207073
   143  C    0.029387
   144  C    0.030141
   145  C   -0.205238
   146  C    0.054136
   147  C   -0.027836
   148  C   -0.082421
   149  C    0.006384
   150  C   -0.012136
   151  C   -0.056278
   152  C    0.020333
   153  C   -0.008621
   154  C    0.025079
   155  C   -0.030372
   156  C    0.133755
   157  N   -0.333171
   158  C    0.160010
   159  C   -0.002184
   160  C    0.004623
   161  C   -0.015884
   162  C   -0.023757
   163  C   -0.004817
   164  S    0.213423
   165  C    0.007651
   166  C   -0.010785
   167  C    0.157739
   168  N   -0.331989
   169  C    0.133838
   170  H    0.060571
   171  H    0.047455
   172  H    0.060833
   173  H    0.047068
   174  H    0.045680
   175  H    0.035934
   176  H    0.049952
   177  H    0.048827
   178  H    0.033054
   179  H    0.043272
   180  H    0.060371
   181  H    0.103612
   182  H    0.098231
   183  H    0.047094
   184  H    0.060720
   185  H    0.047887
   186  H    0.046436
   187  H    0.040801
   188  H    0.028401
   189  H    0.042797
   190  H    0.103999
   191  H    0.104082
   192  C   -0.028612
   193  C    0.031569
   194  C   -0.015415
   195  C    0.046244
   196  C   -0.025838
   197  C    0.004659
   198  C   -0.005021
   199  C   -0.045105
   200  C   -0.051345
   201  C    0.012477
   202  C   -0.077615
   203  C   -0.032304
   204  C    0.046653
   205  C   -0.203817
   206  C    0.052998
   207  C    0.053191
   208  C   -0.217191
   209  C    0.065138
   210  C   -0.049371
   211  C   -0.082826
   212  C   -0.019288
   213  C   -0.023470
   214  C    0.002973
   215  C    0.042736
   216  C   -0.018384
   217  C    0.035468
   218  C   -0.029375
   219  C    0.138157
   220  N   -0.327129
   221  C    0.123867
   222  C   -0.006983
   223  C    0.010831
   224  C   -0.041965
   225  C   -0.028553
   226  C    0.020453
   227  S    0.185844
   228  C   -0.009191
   229  C   -0.001427
   230  C    0.138652
   231  N   -0.327843
   232  C    0.132383
   233  H    0.060750
   234  H    0.047176
   235  H    0.060925
   236  H    0.047677
   237  H    0.051621
   238  H    0.037223
   239  H    0.046805
   240  H    0.047593
   241  H    0.040833
   242  H    0.044667
   243  H    0.060726
   244  H    0.110680
   245  H    0.106781
   246  H    0.047711
   247  H    0.059737
   248  H    0.048824
   249  H    0.040408
   250  H    0.037357
   251  H    0.046736
   252  H    0.047762
   253  H    0.121137
   254  H    0.100414
 Sum of Mulliken charges =   4.00000

 Dipole moment (field-independent basis, Debye):
    X=             -0.4096    Y=              8.1790    Z=             -4.9787  Tot=              9.5839
 Quadrupole moment (field-independent basis, Debye-Ang):
   XX=            933.7850   YY=           -701.0891   ZZ=           -754.8314
   XY=             -3.8759   XZ=            -29.4621   YZ=              8.1668

 Normal termination of Gaussian 16 at Fri Jun  2 08:36:05 2023.
