 Gaussian 16, Revision C.01,
 Gaussian 16:  ES64L-G16RevC.01  3-Jul-2019

 -----------------------------------------
 # SP HSEH1PBE/def2svp scrf=(solvent=dmso)
 -----------------------------------------

 ---------
 cis_l1_lb
 ---------
 Symbolic Z-matrix:
 Charge =  4 Multiplicity = 1

                         Standard orientation:
 ---------------------------------------------------------------------
 Center     Atomic      Atomic             Coordinates (Angstroms)
 Number     Number       Type             X           Y           Z
 ---------------------------------------------------------------------
      1         46           0        7.220013   -1.722995    0.301972
      2         46           0       -7.199986   -1.765048    0.161972
      3          6           0        4.884016   -2.349003   -1.342028
      4          7           0        5.984018   -2.894999   -0.803028
      5          6           0        6.199023   -4.210999   -0.943028
      6          6           0        5.300026   -5.034002   -1.603028
      7          6           0        4.123024   -4.494006   -2.140028
      8          6           0        3.092027   -5.333010   -2.777028
      9          6           0        3.441031   -6.484009   -3.518028
     10          6           0        2.480034   -7.298012   -4.111028
     11          6           0        1.152033   -6.935017   -3.931028
     12          8           0        0.066035   -7.605021   -4.404028
     13          6           0       -1.032967   -6.925025   -3.977028
     14          6           0       -2.355966   -7.276030   -4.212028
     15          6           0       -3.332969   -6.456034   -3.656028
     16          6           0       -3.005973   -5.307032   -2.902028
     17          6           0       -4.052976   -4.469036   -2.291028
     18          6           0       -3.874982   -3.086036   -2.140028
     19          6           0       -4.828984   -2.334039   -1.478028
     20          7           0       -5.939982   -2.887043   -0.970028
     21          6           0       -6.154977   -4.199044   -1.138028
     22          6           0       -5.244974   -5.014041   -1.791028
     23          6           0       -1.662975   -4.971027   -2.694028
     24          6           0       -0.673972   -5.791024   -3.227028
     25          6           0        0.771028   -5.798019   -3.195028
     26          6           0        1.745025   -4.989015   -2.619028
     27          6           0        3.943019   -3.108007   -2.012028
     28          1           0        4.760012   -1.270004   -1.228028
     29          1           0        7.109024   -4.612995   -0.492028
     30          1           0        5.509030   -6.103001   -1.657028
     31          1           0        4.495032   -6.736005   -3.652028
     32          1           0        2.756037   -8.180011   -4.691028
     33          1           0       -2.615963   -8.156031   -4.802028
     34          1           0       -4.382968   -6.700037   -3.830028
     35          1           0       -2.995983   -2.582032   -2.542028
     36          1           0       -4.702988   -1.258039   -1.343028
     37          1           0       -7.075976   -4.605047   -0.715028
     38          1           0       -5.454970   -6.082041   -1.866028
     39          1           0       -1.389978   -4.102026   -2.093028
     40          1           0        1.455022   -4.121016   -2.023028
     41          1           0        3.074017   -2.608010   -2.441028
     42          6           0        4.918012   -1.278003    2.057972
     43          7           0        6.004015   -2.048999    1.895972
     44          6           0        6.187019   -3.101999    2.704972
     45          6           0        5.265020   -3.445002    3.680972
     46          6           0        4.095017   -2.687006    3.834972
     47          6           0        3.035018   -3.076010    4.783972
     48          6           0        3.356021   -3.682009    6.017972
     49          6           0        2.375022   -4.096013    6.911972
     50          6           0        1.054021   -3.902017    6.527972
     51          8           0       -0.042977   -4.270021    7.240972
     52          6           0       -1.128978   -3.934026    6.492972
     53          6           0       -2.453978   -4.165030    6.836972
     54          6           0       -3.418979   -3.775034    5.913972
     55          6           0       -3.076981   -3.156033    4.692972
     56          6           0       -4.120983   -2.779037    3.720972
     57          6           0       -3.997987   -1.623036    2.934972
     58          6           0       -4.950988   -1.338040    1.973972
     59          7           0       -6.004985   -2.140043    1.759972
     60          6           0       -6.168981   -3.228044    2.525972
     61          6           0       -5.258980   -3.572041    3.512972
     62          6           0       -1.731982   -2.923028    4.378972
     63          6           0       -0.750981   -3.324024    5.282972
     64          6           0        0.697019   -3.303019    5.305972
     65          6           0        1.694018   -2.877015    4.430972
     66          6           0        3.953013   -1.562007    3.007972
     67          1           0        4.816009   -0.414004    1.397972
     68          1           0        7.089021   -3.694995    2.540972
     69          1           0        5.447023   -4.335001    4.284972
     70          1           0        4.405021   -3.815005    6.291972
     71          1           0        2.627024   -4.555012    7.868972
     72          1           0       -2.722976   -4.634031    7.783972
     73          1           0       -4.471978   -3.935038    6.155972
     74          1           0       -3.163989   -0.934033    3.071972
     75          1           0       -4.869991   -0.445039    1.350972
     76          1           0       -7.043979   -3.848047    2.320972
     77          1           0       -5.422976   -4.487041    4.083972
     78          1           0       -1.452984   -2.473027    3.423972
     79          1           0        1.430016   -2.434016    3.469972
     80          1           0        3.093010   -0.898010    3.098972
     81          6           0       10.473007   -0.088983    2.489972
     82          6           0        9.588011   -0.935986    1.879972
     83          7           0        8.413009   -0.479990    1.365972
     84          6           0        8.078004    0.792008    1.486972
     85          6           0        8.892001    1.737011    2.148972
     86          6           0        8.511996    3.109010    2.304972
     87          6           0        7.165994    3.612005    1.953972
     88          6           0        7.023989    4.825005    1.261972
     89          6           0        5.771987    5.381000    1.041972
     90          6           0        4.611990    4.730996    1.503972
     91          6           0        3.334987    5.345991    1.361972
     92          6           0        2.255985    5.907987    1.305972
     93          6           0        1.027983    6.644982    1.299972
     94          7           0       -0.116015    5.951978    1.294972
     95          6           0       -1.266017    6.635974    1.310972
     96          6           0       -2.487015    5.888969    1.340972
     97          6           0       -3.558012    5.313966    1.422972
     98          6           0       -4.818010    4.670961    1.585972
     99          6           0       -6.002012    5.301957    1.160972
    100          6           0       -7.236010    4.707952    1.387972
    101          6           0       -7.332006    3.472952    2.048972
    102          6           0       -8.656004    2.911947    2.396972
    103          6           0       -9.604007    3.718943    3.001972
    104          6           0      -10.845005    3.207939    3.437972
    105          6           0      -11.152000    1.874938    3.290972
    106          6           0      -10.229997    1.012941    2.653972
    107          6           0      -10.488992   -0.366060    2.453972
    108          6           0       -9.580989   -1.145057    1.788972
    109          7           0       -8.435991   -0.617052    1.277972
    110          6           0       -8.148995    0.659949    1.457972
    111          6           0       -8.987999    1.535946    2.178972
    112          6           0       -6.147003    2.836956    2.453972
    113          6           0       -4.908005    3.418961    2.220972
    114          6           0       -1.321023    8.041974    1.330972
    115          6           0       -0.127025    8.750978    1.339972
    116          6           0        1.071977    8.049983    1.323972
    117          6           0        4.745994    3.496996    2.163972
    118          6           0        6.003996    2.953001    2.389972
    119          6           0        9.437992    3.978013    2.856972
    120          6           0       10.702994    3.537018    3.296972
    121          6           0       11.059999    2.211019    3.207972
    122          6           0       10.161002    1.286016    2.627972
    123          1           0       11.421009   -0.475979    2.865972
    124          1           0        9.790014   -2.000985    1.766972
    125          1           0        7.137003    1.099005    1.026972
    126          1           0        7.912987    5.343008    0.894972
    127          1           0        5.680984    6.333000    0.514972
    128          1           0       -5.945016    6.267957    0.655972
    129          1           0       -8.145012    5.209949    1.048972
    130          1           0       -9.370010    4.768944    3.183972
    131          1           0      -11.555007    3.881936    3.921972
    132          1           0      -12.098998    1.470934    3.652972
    133          1           0      -11.413990   -0.809063    2.824972
    134          1           0       -9.740985   -2.212057    1.622972
    135          1           0       -7.230997    1.028952    0.997972
    136          1           0       -6.194000    1.892956    2.999972
    137          1           0       -3.999004    2.920964    2.560972
    138          1           0       -2.286024    8.548970    1.342972
    139          1           0       -0.131029    9.842978    1.358972
    140          1           0        2.033976    8.564986    1.328972
    141          1           0        3.855996    2.982993    2.532972
    142          1           0        6.083000    2.026001    2.960972
    143          1           0        9.165989    5.027012    2.993972
    144          1           0       11.393991    4.260021    3.736972
    145          1           0       12.026000    1.860023    3.572972
    146          6           0       10.277013   -1.641983   -2.680028
    147          6           0        9.499014   -1.983986   -1.606028
    148          7           0        8.349012   -1.312991   -1.324028
    149          6           0        7.966008   -0.300992   -2.079028
    150          6           0        8.710007    0.153011   -3.186028
    151          6           0        8.280002    1.259009   -3.984028
    152          6           0        7.056000    2.017005   -3.637028
    153          6           0        6.013999    2.126001   -4.568028
    154          6           0        4.846997    2.809997   -4.253028
    155          6           0        4.694995    3.417996   -2.994028
    156          6           0        3.492992    4.122992   -2.688028
    157          6           0        2.452990    4.721988   -2.478028
    158          6           0        1.241987    5.467983   -2.287028
    159          7           0        0.086989    4.802979   -2.409028
    160          6           0       -1.055013    5.485975   -2.273028
    161          6           0       -2.280010    4.760970   -2.451028
    162          6           0       -3.332008    4.181966   -2.653028
    163          6           0       -4.549006    3.501962   -2.961028
    164          6           0       -4.724004    2.933961   -4.235028
    165          6           0       -5.905001    2.279957   -4.557028
    166          6           0       -6.940001    2.161953   -3.619028
    167          6           0       -8.183998    1.445949   -3.987028
    168          6           0       -8.930000    1.844946   -5.080028
    169          6           0      -10.121997    1.177941   -5.442028
    170          6           0      -10.580993    0.098940   -4.721028
    171          6           0       -9.838992   -0.363058   -3.608028
    172          6           0      -10.229987   -1.484059   -2.834028
    173          6           0       -9.456986   -1.898056   -1.782028
    174          7           0       -8.297988   -1.260052   -1.461028
    175          6           0       -7.897992   -0.215050   -2.161028
    176          6           0       -8.632994    0.308947   -3.244028
    177          6           0       -6.767003    2.734954   -2.350028
    178          6           0       -5.590005    3.396958   -2.022028
    179          6           0       -1.091018    6.865975   -2.008028
    180          6           0        0.112979    7.547979   -1.891028
    181          6           0        1.304982    6.845983   -2.025028
    182          6           0        5.745995    3.326000   -2.065028
    183          6           0        6.906997    2.635004   -2.385028
    184          6           0        9.026001    1.584012   -5.101028
    185          6           0       10.202004    0.874016   -5.432028
    186          6           0       10.646008   -0.170982   -4.655028
    187          6           0        9.903009   -0.558985   -3.515028
    188          1           0       11.185015   -2.208980   -2.892028
    189          1           0        9.758017   -2.808985   -0.941028
    190          1           0        7.025006    0.185005   -1.816028
    191          1           0        6.113001    1.647001   -5.545028
    192          1           0        4.037997    2.876994   -4.984028
    193          1           0       -3.923004    3.010964   -4.972028
    194          1           0       -6.024000    1.833956   -5.548028
    195          1           0       -8.602003    2.707947   -5.662028
    196          1           0      -10.687999    1.534939   -6.305028
    197          1           0      -11.504991   -0.411064   -4.997028
    198          1           0      -11.146985   -2.024062   -3.076028
    199          1           0       -9.727983   -2.755057   -1.164028
    200          1           0       -6.950994    0.242953   -1.868028
    201          1           0       -7.571003    2.679951   -1.611028
    202          1           0       -5.475007    3.843958   -1.033028
    203          1           0       -2.048020    7.377971   -1.907028
    204          1           0        0.123975    8.621979   -1.694028
    205          1           0        2.271980    7.341987   -1.935028
    206          1           0        5.648993    3.805999   -1.090028
    207          1           0        7.718998    2.589007   -1.654028
    208          1           0        8.711998    2.422011   -5.727028
    209          1           0       10.769003    1.173018   -6.317028
    210          1           0       11.561010   -0.709979   -4.907028
 ---------------------------------------------------------------------

 SCF Done:  E(RHSEH1PBE) =  -5637.14263821     A.U. after   22 cycles

 The electronic state is 1-A.
 Alpha  occ. eigenvalues --  -19.28730 -19.28706 -14.46643 -14.46622 -14.46607
 Alpha  occ. eigenvalues --  -14.46601 -14.46511 -14.46499 -14.46471 -14.46470
 Alpha  occ. eigenvalues --  -14.39819 -14.39663 -10.30796 -10.30789 -10.30777
 Alpha  occ. eigenvalues --  -10.30776 -10.30767 -10.30764 -10.30640 -10.30609
 Alpha  occ. eigenvalues --  -10.30213 -10.30197 -10.30169 -10.30168 -10.30163
 Alpha  occ. eigenvalues --  -10.30154 -10.30137 -10.30114 -10.30030 -10.30009
 Alpha  occ. eigenvalues --  -10.29824 -10.29803 -10.29371 -10.29362 -10.29340
 Alpha  occ. eigenvalues --  -10.29331 -10.28602 -10.28597 -10.28577 -10.28569
 Alpha  occ. eigenvalues --  -10.27518 -10.27510 -10.27482 -10.27474 -10.27458
 Alpha  occ. eigenvalues --  -10.27435 -10.27295 -10.27281 -10.27279 -10.27267
 Alpha  occ. eigenvalues --  -10.27127 -10.27111 -10.27018 -10.27013 -10.26969
 Alpha  occ. eigenvalues --  -10.26957 -10.26505 -10.26488 -10.26487 -10.26480
 Alpha  occ. eigenvalues --  -10.26472 -10.26471 -10.26436 -10.26425 -10.26392
 Alpha  occ. eigenvalues --  -10.26372 -10.26316 -10.26308 -10.26293 -10.26288
 Alpha  occ. eigenvalues --  -10.26151 -10.26148 -10.26147 -10.26142 -10.26071
 Alpha  occ. eigenvalues --  -10.26067 -10.25818 -10.25803 -10.25790 -10.25751
 Alpha  occ. eigenvalues --  -10.25737 -10.25721 -10.25703 -10.25685 -10.25626
 Alpha  occ. eigenvalues --  -10.25625 -10.25618 -10.25618 -10.25616 -10.25606
 Alpha  occ. eigenvalues --  -10.25533 -10.25525 -10.25491 -10.25490 -10.25445
 Alpha  occ. eigenvalues --  -10.25443 -10.25393 -10.25385 -10.25361 -10.25354
 Alpha  occ. eigenvalues --  -10.25288 -10.25287 -10.25283 -10.25267 -10.25260
 Alpha  occ. eigenvalues --  -10.25256 -10.25256 -10.25255 -10.25253 -10.25252
 Alpha  occ. eigenvalues --  -10.25249 -10.25244 -10.25214 -10.25209 -10.25165
 Alpha  occ. eigenvalues --  -10.25138 -10.24995 -10.24982 -10.24981 -10.24979
 Alpha  occ. eigenvalues --  -10.24975 -10.24957 -10.24945 -10.24939 -10.24907
 Alpha  occ. eigenvalues --  -10.24892 -10.24820 -10.24812 -10.24746 -10.24728
 Alpha  occ. eigenvalues --  -10.24471 -10.24456 -10.24317 -10.24302  -3.55179
 Alpha  occ. eigenvalues --   -3.55173  -2.23060  -2.23054  -2.22903  -2.22897
 Alpha  occ. eigenvalues --   -2.18869  -2.18861  -1.14718  -1.14671  -1.01449
 Alpha  occ. eigenvalues --   -1.01447  -1.00891  -1.00887  -1.00764  -1.00758
 Alpha  occ. eigenvalues --   -1.00739  -1.00732  -0.98048  -0.97793  -0.90904
 Alpha  occ. eigenvalues --   -0.90902  -0.90783  -0.90767  -0.90348  -0.90305
 Alpha  occ. eigenvalues --   -0.89839  -0.89817  -0.88904  -0.88894  -0.88710
 Alpha  occ. eigenvalues --   -0.88701  -0.85958  -0.85869  -0.85575  -0.85487
 Alpha  occ. eigenvalues --   -0.84056  -0.83889  -0.83871  -0.83740  -0.82953
 Alpha  occ. eigenvalues --   -0.82826  -0.82686  -0.82503  -0.81310  -0.81275
 Alpha  occ. eigenvalues --   -0.81136  -0.81015  -0.80881  -0.80878  -0.80801
 Alpha  occ. eigenvalues --   -0.80770  -0.80706  -0.80641  -0.80524  -0.80327
 Alpha  occ. eigenvalues --   -0.80276  -0.80043  -0.78873  -0.78829  -0.77870
 Alpha  occ. eigenvalues --   -0.77694  -0.77385  -0.77295  -0.77155  -0.77030
 Alpha  occ. eigenvalues --   -0.76863  -0.76759  -0.76728  -0.76697  -0.75490
 Alpha  occ. eigenvalues --   -0.75468  -0.74831  -0.74655  -0.73289  -0.73148
 Alpha  occ. eigenvalues --   -0.69374  -0.69271  -0.69252  -0.69128  -0.69052
 Alpha  occ. eigenvalues --   -0.68963  -0.68794  -0.68754  -0.68179  -0.68017
 Alpha  occ. eigenvalues --   -0.67889  -0.67771  -0.67739  -0.67662  -0.67504
 Alpha  occ. eigenvalues --   -0.67460  -0.66814  -0.66800  -0.66693  -0.66677
 Alpha  occ. eigenvalues --   -0.65665  -0.65584  -0.65276  -0.65136  -0.65043
 Alpha  occ. eigenvalues --   -0.64883  -0.63080  -0.63057  -0.62919  -0.62918
 Alpha  occ. eigenvalues --   -0.62895  -0.62814  -0.61659  -0.61598  -0.61550
 Alpha  occ. eigenvalues --   -0.61484  -0.61382  -0.61289  -0.60935  -0.60897
 Alpha  occ. eigenvalues --   -0.58289  -0.58177  -0.58063  -0.57724  -0.57446
 Alpha  occ. eigenvalues --   -0.56837  -0.56625  -0.56548  -0.56448  -0.56399
 Alpha  occ. eigenvalues --   -0.55971  -0.55884  -0.55663  -0.55610  -0.55523
 Alpha  occ. eigenvalues --   -0.55516  -0.55466  -0.55312  -0.55071  -0.54969
 Alpha  occ. eigenvalues --   -0.54773  -0.54647  -0.54248  -0.54165  -0.54098
 Alpha  occ. eigenvalues --   -0.54054  -0.53259  -0.53161  -0.52484  -0.52304
 Alpha  occ. eigenvalues --   -0.52233  -0.52127  -0.51394  -0.51310  -0.50319
 Alpha  occ. eigenvalues --   -0.50263  -0.50137  -0.50111  -0.49887  -0.49796
 Alpha  occ. eigenvalues --   -0.49679  -0.49610  -0.49599  -0.49557  -0.49496
 Alpha  occ. eigenvalues --   -0.49367  -0.49360  -0.49191  -0.49152  -0.49031
 Alpha  occ. eigenvalues --   -0.48961  -0.48807  -0.48642  -0.48536  -0.48522
 Alpha  occ. eigenvalues --   -0.48364  -0.48246  -0.48129  -0.47791  -0.47706
 Alpha  occ. eigenvalues --   -0.47677  -0.47560  -0.47511  -0.47379  -0.47123
 Alpha  occ. eigenvalues --   -0.47057  -0.47008  -0.46846  -0.46740  -0.46550
 Alpha  occ. eigenvalues --   -0.46409  -0.46265  -0.46217  -0.46124  -0.46099
 Alpha  occ. eigenvalues --   -0.46040  -0.45972  -0.45863  -0.45812  -0.45611
 Alpha  occ. eigenvalues --   -0.45606  -0.45371  -0.45247  -0.45181  -0.45122
 Alpha  occ. eigenvalues --   -0.45097  -0.45017  -0.44999  -0.44803  -0.44315
 Alpha  occ. eigenvalues --   -0.44270  -0.44209  -0.44199  -0.44053  -0.44024
 Alpha  occ. eigenvalues --   -0.43967  -0.43914  -0.43179  -0.43028  -0.43025
 Alpha  occ. eigenvalues --   -0.42850  -0.42569  -0.42456  -0.42341  -0.41935
 Alpha  occ. eigenvalues --   -0.41889  -0.41871  -0.41827  -0.41148  -0.41065
 Alpha  occ. eigenvalues --   -0.40930  -0.40878  -0.40786  -0.40662  -0.40623
 Alpha  occ. eigenvalues --   -0.40423  -0.40348  -0.40281  -0.40268  -0.40107
 Alpha  occ. eigenvalues --   -0.39993  -0.39934  -0.39909  -0.39816  -0.39804
 Alpha  occ. eigenvalues --   -0.39771  -0.39638  -0.39602  -0.39444  -0.39211
 Alpha  occ. eigenvalues --   -0.39064  -0.39037  -0.38878  -0.38645  -0.38309
 Alpha  occ. eigenvalues --   -0.38247  -0.38219  -0.38111  -0.37178  -0.37173
 Alpha  occ. eigenvalues --   -0.36954  -0.36830  -0.36753  -0.36674  -0.36439
 Alpha  occ. eigenvalues --   -0.36425  -0.36222  -0.36208  -0.35983  -0.35937
 Alpha  occ. eigenvalues --   -0.35797  -0.35726  -0.35493  -0.34982  -0.34776
 Alpha  occ. eigenvalues --   -0.34566  -0.34525  -0.34303  -0.33936  -0.33532
 Alpha  occ. eigenvalues --   -0.33384  -0.33326  -0.33207  -0.33069  -0.32647
 Alpha  occ. eigenvalues --   -0.32399  -0.32195  -0.32081  -0.31929  -0.31779
 Alpha  occ. eigenvalues --   -0.31710  -0.31691  -0.31593  -0.31524  -0.31096
 Alpha  occ. eigenvalues --   -0.30946  -0.30744  -0.30635  -0.30376  -0.30368
 Alpha  occ. eigenvalues --   -0.29831  -0.29822  -0.29530  -0.29522  -0.29425
 Alpha  occ. eigenvalues --   -0.29231  -0.29057  -0.28678  -0.28485  -0.28384
 Alpha  occ. eigenvalues --   -0.28349  -0.28108  -0.28102  -0.27716  -0.27690
 Alpha  occ. eigenvalues --   -0.27680  -0.27536  -0.27002  -0.26990  -0.26840
 Alpha  occ. eigenvalues --   -0.26742  -0.26499  -0.25771  -0.25346  -0.24740
 Alpha  occ. eigenvalues --   -0.24719  -0.24701  -0.24691  -0.24293  -0.24090
 Alpha  occ. eigenvalues --   -0.23590  -0.22997
 Alpha virt. eigenvalues --   -0.10994  -0.10985  -0.10482  -0.10474  -0.10059
 Alpha virt. eigenvalues --   -0.09765  -0.09573  -0.09371  -0.08863  -0.08767
 Alpha virt. eigenvalues --   -0.08642  -0.08525  -0.08107  -0.08031  -0.07759

 Mulliken charges:
               1
     1  Pd   0.495792
     2  Pd   0.494892
     3  C    0.138862
     4  N   -0.304051
     5  C    0.144916
     6  C   -0.043887
     7  C    0.063721
     8  C    0.032526
     9  C   -0.034435
    10  C   -0.074633
    11  C    0.206346
    12  O   -0.256897
    13  C    0.206589
    14  C   -0.074169
    15  C   -0.034714
    16  C    0.032259
    17  C    0.063558
    18  C   -0.051457
    19  C    0.140192
    20  N   -0.302619
    21  C    0.144183
    22  C   -0.043233
    23  C   -0.058093
    24  C    0.023644
    25  C    0.023761
    26  C   -0.059315
    27  C   -0.050167
    28  H    0.098231
    29  H    0.103046
    30  H    0.062850
    31  H    0.049749
    32  H    0.046128
    33  H    0.046011
    34  H    0.049750
    35  H    0.063657
    36  H    0.097356
    37  H    0.103478
    38  H    0.062975
    39  H    0.037250
    40  H    0.037955
    41  H    0.063803
    42  C    0.138604
    43  N   -0.303614
    44  C    0.145328
    45  C   -0.043082
    46  C    0.061487
    47  C    0.029917
    48  C   -0.035000
    49  C   -0.072230
    50  C    0.202451
    51  O   -0.255387
    52  C    0.203026
    53  C   -0.072848
    54  C   -0.033669
    55  C    0.026916
    56  C    0.058670
    57  C   -0.047036
    58  C    0.138359
    59  N   -0.304709
    60  C    0.145848
    61  C   -0.042018
    62  C   -0.054052
    63  C    0.024759
    64  C    0.023376
    65  C   -0.054243
    66  C   -0.049769
    67  H    0.095812
    68  H    0.102472
    69  H    0.063429
    70  H    0.050181
    71  H    0.045865
    72  H    0.045728
    73  H    0.049990
    74  H    0.063289
    75  H    0.097481
    76  H    0.101645
    77  H    0.063510
    78  H    0.037654
    79  H    0.036704
    80  H    0.063401
    81  C   -0.030078
    82  C    0.132722
    83  N   -0.299724
    84  C    0.125287
    85  C   -0.007683
    86  C    0.059661
    87  C   -0.017104
    88  C   -0.027797
    89  C   -0.008071
    90  C   -0.081576
    91  C    0.011346
    92  C    0.022589
    93  C   -0.065669
    94  N   -0.165851
    95  C   -0.067435
    96  C    0.030966
    97  C    0.006903
    98  C   -0.092578
    99  C   -0.007848
   100  C   -0.018680
   101  C   -0.023583
   102  C    0.058538
   103  C   -0.031008
   104  C    0.007924
   105  C   -0.006910
   106  C    0.031845
   107  C   -0.029344
   108  C    0.130539
   109  N   -0.299784
   110  C    0.125012
   111  C   -0.008943
   112  C   -0.034955
   113  C    0.011164
   114  C    0.012700
   115  C    0.034827
   116  C    0.009087
   117  C    0.008343
   118  C   -0.036383
   119  C   -0.033516
   120  C    0.007858
   121  C   -0.006289
   122  C    0.030180
   123  H    0.057950
   124  H    0.094493
   125  H    0.093417
   126  H    0.044316
   127  H    0.043513
   128  H    0.043385
   129  H    0.043708
   130  H    0.046608
   131  H    0.057857
   132  H    0.045045
   133  H    0.058054
   134  H    0.096448
   135  H    0.095243
   136  H    0.050633
   137  H    0.039510
   138  H    0.046966
   139  H    0.060259
   140  H    0.047473
   141  H    0.040022
   142  H    0.050725
   143  H    0.047664
   144  H    0.057970
   145  H    0.044768
   146  C   -0.032291
   147  C    0.132264
   148  N   -0.300537
   149  C    0.129425
   150  C   -0.001838
   151  C    0.043509
   152  C   -0.047735
   153  C   -0.003552
   154  C   -0.000965
   155  C   -0.061841
   156  C   -0.033008
   157  C    0.041160
   158  C   -0.062146
   159  N   -0.173047
   160  C   -0.065840
   161  C    0.040463
   162  C   -0.032269
   163  C   -0.061267
   164  C   -0.000685
   165  C   -0.003728
   166  C   -0.048575
   167  C    0.040126
   168  C   -0.025210
   169  C    0.006469
   170  C   -0.006834
   171  C    0.034261
   172  C   -0.032280
   173  C    0.133071
   174  N   -0.300853
   175  C    0.130418
   176  C   -0.000815
   177  C   -0.031508
   178  C    0.005978
   179  C    0.029884
   180  C    0.023887
   181  C    0.023261
   182  C    0.008197
   183  C   -0.034531
   184  C   -0.026634
   185  C    0.006145
   186  C   -0.007277
   187  C    0.035255
   188  H    0.058018
   189  H    0.092961
   190  H    0.102943
   191  H    0.040296
   192  H    0.039887
   193  H    0.039259
   194  H    0.040708
   195  H    0.043922
   196  H    0.057801
   197  H    0.044344
   198  H    0.058079
   199  H    0.092640
   200  H    0.101630
   201  H    0.045247
   202  H    0.038077
   203  H    0.045771
   204  H    0.060652
   205  H    0.045689
   206  H    0.034438
   207  H    0.045562
   208  H    0.044183
   209  H    0.058129
   210  H    0.044493
 Sum of Mulliken charges =   4.00000

 Dipole moment (field-independent basis, Debye):
    X=              0.0153    Y=            -21.6171    Z=              3.6936  Tot=             21.9304
 Quadrupole moment (field-independent basis, Debye-Ang):
   XX=            425.9516   YY=           -481.4013   ZZ=           -603.7623
   XY=              1.7764   XZ=              3.8320   YZ=              2.8040

 Normal termination of Gaussian 16 at Tue Jul 25 17:28:48 2023.
