 Gaussian 16, Revision C.01,
 Gaussian 16:  ES64L-G16RevC.01  3-Jul-2019

 ------------------------------------------------------------------
 # SP PBE1PBE/def2svp empiricaldispersion=GD3BJ scrf=(solvent=dmso)
 ------------------------------------------------------------------

 -----------
 trans_l2_lb
 -----------
 Symbolic Z-matrix:
 Charge =  4 Multiplicity = 1

                         Standard orientation:
 ---------------------------------------------------------------------
 Center     Atomic      Atomic             Coordinates (Angstroms)
 Number     Number       Type             X           Y           Z
 ---------------------------------------------------------------------
      1         46           0        7.243308    0.579697    0.705402
      2         46           0       -5.845092   -0.516206    0.210402
      3          6           0        0.919408   -3.815304   -3.861798
      4          6           0       -0.365692   -3.416005   -3.505498
      5          6           0       -0.587492   -2.858305   -2.240598
      6          6           0        0.493108   -2.679805   -1.370698
      7          6           0        1.796708   -3.044604   -1.728798
      8          6           0        1.988008   -3.633704   -2.987798
      9          6           0        2.930208   -2.785504   -0.808398
     10          6           0        2.728008   -2.427704    0.532602
     11          6           0        3.820308   -2.135404    1.342202
     12          7           0        5.083508   -2.203604    0.926302
     13          6           0        5.291608   -2.578804   -0.335798
     14          6           0        4.266008   -2.860104   -1.233398
     15          6           0       -1.930192   -2.443605   -1.789098
     16          6           0       -2.800892   -1.693105   -2.589498
     17          6           0       -3.996492   -1.227105   -2.057998
     18          7           0       -4.360392   -1.495105   -0.796398
     19          6           0       -3.573392   -2.278905   -0.039098
     20          6           0       -2.363692   -2.765505   -0.495498
     21          1           0        1.092109   -4.282404   -4.833198
     22          1           0       -1.197692   -3.564505   -4.197398
     23          1           0        0.305908   -2.201005   -0.408898
     24          1           0        2.978908   -3.970704   -3.294498
     25          1           0        1.729408   -2.369304    0.964902
     26          1           0        3.661008   -1.828504    2.380602
     27          1           0        6.334008   -2.646904   -0.663498
     28          1           0        4.524408   -3.120704   -2.259898
     29          1           0       -2.532592   -1.420005   -3.610998
     30          1           0       -4.670392   -0.597805   -2.642298
     31          1           0       -3.923992   -2.507405    0.969602
     32          1           0       -1.760192   -3.394705    0.159602
     33          6           0        0.338407    5.325495    0.699402
     34          6           0       -0.844393    4.595695    0.638602
     35          6           0       -0.818593    3.199695    0.758702
     36          6           0        0.413107    2.545595    0.879902
     37          6           0        1.608107    3.273596    0.897902
     38          6           0        1.558107    4.674096    0.834802
     39          6           0        2.913607    2.590896    0.916302
     40          6           0        3.135008    1.415796    0.185302
     41          6           0        4.397208    0.849696    0.150802
     42          7           0        5.426308    1.386696    0.826402
     43          6           0        5.236007    2.496796    1.558202
     44          6           0        4.004307    3.122296    1.618002
     45          6           0       -2.069393    2.415495    0.738302
     46          6           0       -2.288092    1.368895    1.644202
     47          6           0       -3.449792    0.618495    1.561502
     48          7           0       -4.376092    0.847495    0.619302
     49          6           0       -4.201892    1.868195   -0.235498
     50          6           0       -3.079293    2.678395   -0.196098
     51          1           0        0.301507    6.410495    0.607202
     52          1           0       -1.788993    5.126595    0.503802
     53          1           0        0.439708    1.455395    0.946102
     54          1           0        2.482707    5.254996    0.835602
     55          1           0        2.341108    0.952396   -0.401998
     56          1           0        4.601208   -0.036704   -0.448998
     57          1           0        6.093307    2.895196    2.100702
     58          1           0        3.903307    4.021296    2.226302
     59          1           0       -1.560592    1.137295    2.423202
     60          1           0       -3.643792   -0.199405    2.257802
     61          1           0       -4.976392    2.021095   -0.990598
     62          1           0       -2.978593    3.482395   -0.926398
     63          6           0        8.100908    1.026997    4.840202
     64          6           0        7.933108    1.232997    3.498602
     65          7           0        7.319408    0.306297    2.709302
     66          6           0        6.888408   -0.838104    3.216402
     67          6           0        7.055708   -1.159903    4.583702
     68          6           0        6.603808   -2.403304    5.131602
     69          6           0        6.012308   -3.434204    4.248702
     70          6           0        4.673508   -3.815704    4.407702
     71          6           0        4.067409   -4.661404    3.488202
     72          6           0        4.795809   -5.153004    2.390702
     73          6           0        4.119209   -5.800604    1.320302
     74          6           0        3.501509   -6.204804    0.351802
     75          6           0        2.760609   -6.569604   -0.815398
     76          7           0        1.427109   -6.483604   -0.731998
     77          6           0        0.705009   -6.763704   -1.820998
     78          6           0       -0.717491   -6.630305   -1.706998
     79          6           0       -1.924591   -6.498505   -1.625598
     80          6           0       -3.331891   -6.283405   -1.553498
     81          6           0       -4.128691   -6.943805   -0.602698
     82          6           0       -5.493891   -6.687605   -0.528298
     83          6           0       -6.090591   -5.755206   -1.385098
     84          6           0       -7.528591   -5.412606   -1.300198
     85          6           0       -8.524291   -6.339606   -1.534598
     86          6           0       -9.884491   -5.954406   -1.572898
     87          6           0      -10.261191   -4.641006   -1.401698
     88          6           0       -9.276892   -3.663306   -1.125498
     89          6           0       -9.564192   -2.288706   -0.931398
     90          6           0       -8.562992   -1.415006   -0.602398
     91          7           0       -7.276792   -1.832806   -0.407198
     92          6           0       -6.967992   -3.097806   -0.626298
     93          6           0       -7.912192   -4.061706   -1.033698
     94          6           0       -5.295691   -5.109905   -2.346098
     95          6           0       -3.938291   -5.374505   -2.438198
     96          6           0        1.281809   -7.156904   -3.040698
     97          6           0        2.666209   -7.254304   -3.115298
     98          6           0        3.427309   -6.954604   -1.991798
     99          6           0        6.166409   -4.858104    2.293302
    100          6           0        6.761508   -4.002504    3.208402
    101          6           0        6.713508   -2.600004    6.494402
    102          6           0        7.293608   -1.622903    7.333502
    103          6           0        7.768808   -0.438303    6.819502
    104          6           0        7.653908   -0.180603    5.433502
    105          1           0        8.580508    1.794597    5.449502
    106          1           0        8.283108    2.141897    3.005302
    107          1           0        6.374208   -1.516304    2.518802
    108          1           0        4.087208   -3.395504    5.228002
    109          1           0        3.006709   -4.901504    3.580002
    110          1           0       -3.667291   -7.654205    0.085502
    111          1           0       -6.101291   -7.196706    0.223402
    112          1           0       -8.254291   -7.378806   -1.734398
    113          1           0      -10.643191   -6.714106   -1.773398
    114          1           0      -11.309391   -4.343606   -1.470598
    115          1           0      -10.584992   -1.918906   -1.039798
    116          1           0       -8.756492   -0.352106   -0.462598
    117          1           0       -5.934692   -3.398606   -0.461498
    118          1           0       -5.752591   -4.393506   -3.032898
    119          1           0       -3.331891   -4.871405   -3.192598
    120          1           0        0.647409   -7.373104   -3.900898
    121          1           0        3.150009   -7.555804   -4.046698
    122          1           0        4.516509   -7.008904   -2.009398
    123          1           0        6.744909   -5.256404    1.458102
    124          1           0        7.816808   -3.742603    3.097702
    125          1           0        6.365608   -3.540504    6.926802
    126          1           0        7.373808   -1.823003    8.404202
    127          1           0        8.228908    0.311197    7.466302
    128          6           0        8.213908   -0.170203   -3.297498
    129          6           0        8.002108   -0.210603   -1.947698
    130          7           0        7.267108    0.744797   -1.311098
    131          6           0        6.692108    1.714196   -2.003098
    132          6           0        6.804208    1.815196   -3.406998
    133          6           0        6.165207    2.853096   -4.157698
    134          6           0        5.178607    3.785896   -3.568298
    135          6           0        4.049407    3.308496   -2.883198
    136          6           0        3.044607    4.176196   -2.474898
    137          6           0        3.144507    5.554996   -2.738098
    138          6           0        2.075607    6.436996   -2.409998
    139          6           0        1.136407    7.178396   -2.181998
    140          6           0        0.007407    8.025495   -1.940898
    141          7           0       -1.047893    7.464195   -1.339998
    142          6           0       -2.132393    8.213695   -1.114398
    143          6           0       -3.227893    7.557595   -0.464998
    144          6           0       -4.134093    6.958495    0.085402
    145          6           0       -5.157293    6.201895    0.725502
    146          6           0       -6.518793    6.470094    0.497802
    147          6           0       -7.498793    5.688894    1.098102
    148          6           0       -7.149793    4.617594    1.931902
    149          6           0       -8.178593    3.775794    2.579102
    150          6           0       -9.172093    4.336894    3.359102
    151          6           0      -10.087693    3.532594    4.073202
    152          6           0      -10.007892    2.159094    4.034202
    153          6           0       -9.027992    1.539594    3.224102
    154          6           0       -8.880892    0.133694    3.123602
    155          6           0       -7.950492   -0.401206    2.275302
    156          7           0       -7.172092    0.384794    1.474302
    157          6           0       -7.256092    1.699394    1.570202
    158          6           0       -8.134993    2.350294    2.462402
    159          6           0       -5.789993    4.366994    2.176802
    160          6           0       -4.807293    5.147195    1.587902
    161          6           0       -2.211894    9.566495   -1.485398
    162          6           0       -1.109294   10.145195   -2.104898
    163          6           0        0.023106    9.373695   -2.339898
    164          6           0        4.295707    6.040396   -3.385198
    165          6           0        5.291707    5.165996   -3.795898
    166          6           0        6.447607    2.945896   -5.509398
    167          6           0        7.297408    2.024697   -6.157498
    168          6           0        7.867908    0.983597   -5.463398
    169          6           0        7.636408    0.863497   -4.074198
    170          1           0        8.831408   -0.934603   -3.770998
    171          1           0        8.430108   -1.005403   -1.330798
    172          1           0        6.137107    2.467796   -1.442298
    173          1           0        3.927407    2.235596   -2.717198
    174          1           0        2.154007    3.788696   -1.977298
    175          1           0       -6.801993    7.288594   -0.166198
    176          1           0       -8.552593    5.896394    0.899402
    177          1           0       -9.222793    5.423194    3.459602
    178          1           0      -10.849593    4.016194    4.688302
    179          1           0      -10.692992    1.538994    4.615602
    180          1           0       -9.509692   -0.529506    3.719702
    181          1           0       -7.807592   -1.478206    2.188802
    182          1           0       -6.622793    2.289494    0.908102
    183          1           0       -5.499093    3.558195    2.851302
    184          1           0       -3.756293    4.945895    1.798602
    185          1           0       -3.118394   10.138595   -1.284198
    186          1           0       -1.132994   11.195095   -2.403898
    187          1           0        0.906406    9.791196   -2.824898
    188          1           0        4.391407    7.109796   -3.581198
    189          1           0        6.172107    5.555596   -4.311598
    190          1           0        5.966207    3.729196   -6.098398
    191          1           0        7.478708    2.132697   -7.228898
    192          1           0        8.503408    0.251297   -5.964998
 ---------------------------------------------------------------------

 SCF Done:  E(RPBE1PBE) =  -5027.90861175     A.U. after   21 cycles

 The electronic state is 1-A.
 Alpha  occ. eigenvalues --  -14.50637 -14.48944 -14.48649 -14.48605 -14.48440
 Alpha  occ. eigenvalues --  -14.48382 -14.48337 -14.41418 -14.41168 -14.41150
 Alpha  occ. eigenvalues --  -10.32819 -10.32797 -10.32745 -10.32317 -10.32151
 Alpha  occ. eigenvalues --  -10.32138 -10.32117 -10.32104 -10.32059 -10.31685
 Alpha  occ. eigenvalues --  -10.31587 -10.31580 -10.31409 -10.31324 -10.31304
 Alpha  occ. eigenvalues --  -10.31038 -10.30920 -10.30879 -10.30841 -10.30509
 Alpha  occ. eigenvalues --  -10.30389 -10.29318 -10.29273 -10.29036 -10.28996
 Alpha  occ. eigenvalues --  -10.28975 -10.28940 -10.28880 -10.28863 -10.28803
 Alpha  occ. eigenvalues --  -10.28796 -10.28776 -10.28755 -10.28709 -10.28696
 Alpha  occ. eigenvalues --  -10.28670 -10.28641 -10.28553 -10.28547 -10.28478
 Alpha  occ. eigenvalues --  -10.28447 -10.28446 -10.28442 -10.28394 -10.28317
 Alpha  occ. eigenvalues --  -10.28180 -10.28170 -10.28168 -10.28112 -10.27860
 Alpha  occ. eigenvalues --  -10.27840 -10.27797 -10.27767 -10.27728 -10.27716
 Alpha  occ. eigenvalues --  -10.27577 -10.27559 -10.27416 -10.27410 -10.27315
 Alpha  occ. eigenvalues --  -10.27305 -10.27228 -10.27172 -10.27164 -10.27122
 Alpha  occ. eigenvalues --  -10.27091 -10.26959 -10.26945 -10.26945 -10.26941
 Alpha  occ. eigenvalues --  -10.26910 -10.26878 -10.26818 -10.26788 -10.26763
 Alpha  occ. eigenvalues --  -10.26761 -10.26759 -10.26749 -10.26736 -10.26728
 Alpha  occ. eigenvalues --  -10.26723 -10.26722 -10.26662 -10.26652 -10.26622
 Alpha  occ. eigenvalues --  -10.26619 -10.26582 -10.26551 -10.26535 -10.26511
 Alpha  occ. eigenvalues --  -10.26469 -10.26413 -10.26404 -10.26391 -10.26367
 Alpha  occ. eigenvalues --  -10.26364 -10.26339 -10.26318 -10.26290 -10.26277
 Alpha  occ. eigenvalues --  -10.26215 -10.26136 -10.26107 -10.26081 -10.26068
 Alpha  occ. eigenvalues --  -10.26059 -10.26050 -10.25931 -10.25775 -10.25564
 Alpha  occ. eigenvalues --   -3.57438  -3.57024  -2.25906  -2.24967  -2.24902
 Alpha  occ. eigenvalues --   -2.24749  -2.20994  -2.20649  -1.04250  -1.03563
 Alpha  occ. eigenvalues --   -1.03157  -1.02820  -1.02747  -1.02552  -1.02397
 Alpha  occ. eigenvalues --   -0.99844  -0.99562  -0.98757  -0.92750  -0.92622
 Alpha  occ. eigenvalues --   -0.92540  -0.92532  -0.92363  -0.91857  -0.90632
 Alpha  occ. eigenvalues --   -0.90561  -0.90458  -0.90255  -0.89217  -0.88025
 Alpha  occ. eigenvalues --   -0.86546  -0.85854  -0.85614  -0.85573  -0.85395
 Alpha  occ. eigenvalues --   -0.85065  -0.84669  -0.84418  -0.84395  -0.84255
 Alpha  occ. eigenvalues --   -0.83613  -0.83000  -0.82915  -0.82726  -0.82701
 Alpha  occ. eigenvalues --   -0.82679  -0.82459  -0.82376  -0.82020  -0.81833
 Alpha  occ. eigenvalues --   -0.81597  -0.79927  -0.79652  -0.79558  -0.79372
 Alpha  occ. eigenvalues --   -0.79275  -0.78986  -0.78926  -0.78912  -0.78808
 Alpha  occ. eigenvalues --   -0.78630  -0.78579  -0.78404  -0.78346  -0.76464
 Alpha  occ. eigenvalues --   -0.76242  -0.75019  -0.74736  -0.71244  -0.70988
 Alpha  occ. eigenvalues --   -0.70843  -0.70767  -0.70476  -0.70355  -0.70186
 Alpha  occ. eigenvalues --   -0.69818  -0.69684  -0.69552  -0.69428  -0.69339
 Alpha  occ. eigenvalues --   -0.69285  -0.69067  -0.68616  -0.68439  -0.68344
 Alpha  occ. eigenvalues --   -0.68193  -0.67791  -0.66968  -0.66834  -0.66743
 Alpha  occ. eigenvalues --   -0.66738  -0.66434  -0.64732  -0.64717  -0.64664
 Alpha  occ. eigenvalues --   -0.64388  -0.64244  -0.63499  -0.63313  -0.63246
 Alpha  occ. eigenvalues --   -0.63102  -0.62985  -0.62774  -0.62363  -0.60462
 Alpha  occ. eigenvalues --   -0.59962  -0.59686  -0.59305  -0.58511  -0.58309
 Alpha  occ. eigenvalues --   -0.58151  -0.58026  -0.57952  -0.57764  -0.57611
 Alpha  occ. eigenvalues --   -0.57236  -0.57126  -0.57069  -0.56957  -0.56632
 Alpha  occ. eigenvalues --   -0.56407  -0.56357  -0.56211  -0.56067  -0.55724
 Alpha  occ. eigenvalues --   -0.55651  -0.55466  -0.55385  -0.55305  -0.54428
 Alpha  occ. eigenvalues --   -0.54106  -0.53853  -0.52843  -0.52701  -0.52477
 Alpha  occ. eigenvalues --   -0.52070  -0.51876  -0.51814  -0.51718  -0.51595
 Alpha  occ. eigenvalues --   -0.51527  -0.51458  -0.51230  -0.51075  -0.50888
 Alpha  occ. eigenvalues --   -0.50784  -0.50662  -0.50551  -0.50414  -0.50371
 Alpha  occ. eigenvalues --   -0.50228  -0.50137  -0.50068  -0.49892  -0.49822
 Alpha  occ. eigenvalues --   -0.49701  -0.49513  -0.49367  -0.49259  -0.49188
 Alpha  occ. eigenvalues --   -0.49084  -0.48976  -0.48879  -0.48632  -0.48479
 Alpha  occ. eigenvalues --   -0.48376  -0.48305  -0.48155  -0.48107  -0.47914
 Alpha  occ. eigenvalues --   -0.47793  -0.47616  -0.47585  -0.47289  -0.47154
 Alpha  occ. eigenvalues --   -0.46993  -0.46803  -0.46761  -0.46728  -0.46529
 Alpha  occ. eigenvalues --   -0.46444  -0.46432  -0.46150  -0.45963  -0.45802
 Alpha  occ. eigenvalues --   -0.45735  -0.45622  -0.45545  -0.45498  -0.45363
 Alpha  occ. eigenvalues --   -0.45189  -0.44754  -0.44512  -0.44325  -0.44238
 Alpha  occ. eigenvalues --   -0.44145  -0.43978  -0.43895  -0.43424  -0.43194
 Alpha  occ. eigenvalues --   -0.43060  -0.42937  -0.42662  -0.42518  -0.42399
 Alpha  occ. eigenvalues --   -0.42378  -0.42203  -0.42081  -0.41989  -0.41889
 Alpha  occ. eigenvalues --   -0.41800  -0.41707  -0.41677  -0.41588  -0.41531
 Alpha  occ. eigenvalues --   -0.41341  -0.41274  -0.41219  -0.41126  -0.40950
 Alpha  occ. eigenvalues --   -0.40891  -0.40540  -0.40472  -0.40181  -0.39747
 Alpha  occ. eigenvalues --   -0.39452  -0.38964  -0.38917  -0.38765  -0.38439
 Alpha  occ. eigenvalues --   -0.38356  -0.38312  -0.38167  -0.38043  -0.38000
 Alpha  occ. eigenvalues --   -0.37805  -0.37733  -0.37543  -0.37413  -0.37279
 Alpha  occ. eigenvalues --   -0.37173  -0.36992  -0.36425  -0.36306  -0.36110
 Alpha  occ. eigenvalues --   -0.35633  -0.35439  -0.35161  -0.34885  -0.34850
 Alpha  occ. eigenvalues --   -0.34487  -0.34409  -0.34224  -0.34082  -0.33960
 Alpha  occ. eigenvalues --   -0.33637  -0.33402  -0.33325  -0.33041  -0.32925
 Alpha  occ. eigenvalues --   -0.32751  -0.32679  -0.32492  -0.32145  -0.31906
 Alpha  occ. eigenvalues --   -0.31527  -0.31224  -0.31070  -0.30937  -0.30776
 Alpha  occ. eigenvalues --   -0.30746  -0.30668  -0.30251  -0.30155  -0.30012
 Alpha  occ. eigenvalues --   -0.29905  -0.29810  -0.29482  -0.29342  -0.29311
 Alpha  occ. eigenvalues --   -0.29230  -0.29045  -0.28942  -0.28731  -0.28613
 Alpha  occ. eigenvalues --   -0.28328  -0.28217  -0.28109  -0.27864  -0.27304
 Alpha  occ. eigenvalues --   -0.27018  -0.26991  -0.25658  -0.25604  -0.24518
 Alpha  occ. eigenvalues --   -0.24424
 Alpha virt. eigenvalues --   -0.13062  -0.09885  -0.09752  -0.09552  -0.09446
 Alpha virt. eigenvalues --   -0.09221  -0.09160  -0.08935  -0.07807  -0.07795
 Alpha virt. eigenvalues --   -0.07605  -0.07487  -0.07179  -0.06862  -0.06469

 Mulliken charges:
               1
     1  Pd   0.777095
     2  Pd   0.513849
     3  C   -0.006427
     4  C   -0.015187
     5  C    0.024953
     6  C   -0.061015
     7  C    0.066045
     8  C   -0.051198
     9  C    0.080542
    10  C   -0.077539
    11  C    0.083553
    12  N   -0.217490
    13  C    0.052187
    14  C   -0.072840
    15  C    0.024080
    16  C   -0.026978
    17  C    0.154253
    18  N   -0.343931
    19  C    0.136140
    20  C   -0.028239
    21  H    0.046052
    22  H    0.048635
    23  H    0.038274
    24  H    0.043554
    25  H    0.044433
    26  H    0.049591
    27  H    0.057052
    28  H    0.046549
    29  H    0.068010
    30  H    0.108891
    31  H    0.111709
    32  H    0.068681
    33  C    0.005751
    34  C   -0.015264
    35  C    0.020787
    36  C   -0.021776
    37  C   -0.002238
    38  C   -0.016124
    39  C    0.063428
    40  C   -0.046174
    41  C    0.146577
    42  N   -0.348518
    43  C    0.165621
    44  C   -0.039290
    45  C    0.035019
    46  C   -0.033166
    47  C    0.155028
    48  N   -0.332150
    49  C    0.139657
    50  C   -0.033929
    51  H    0.049101
    52  H    0.036905
    53  H    0.044029
    54  H    0.049646
    55  H    0.072106
    56  H    0.099613
    57  H    0.099505
    58  H    0.073772
    59  H    0.068487
    60  H    0.102863
    61  H    0.113616
    62  H    0.070246
    63  C   -0.035264
    64  C    0.131924
    65  N   -0.344918
    66  C    0.156695
    67  C   -0.017613
    68  C    0.022412
    69  C   -0.071431
    70  C    0.000866
    71  C    0.002009
    72  C   -0.084324
    73  C   -0.044327
    74  C    0.068034
    75  C   -0.058167
    76  N   -0.185682
    77  C   -0.059699
    78  C    0.058461
    79  C   -0.034644
    80  C   -0.082924
    81  C    0.008862
    82  C    0.008522
    83  C   -0.082357
    84  C    0.040967
    85  C   -0.012307
    86  C    0.001328
    87  C   -0.004694
    88  C    0.036823
    89  C   -0.028774
    90  C    0.126168
    91  N   -0.328137
    92  C    0.177148
    93  C   -0.039048
    94  C   -0.025830
    95  C    0.009770
    96  C    0.022400
    97  C    0.030305
    98  C    0.011402
    99  C    0.021601
   100  C   -0.009647
   101  C   -0.016661
   102  C    0.003354
   103  C   -0.005301
   104  C    0.031990
   105  H    0.061578
   106  H    0.101519
   107  H    0.130304
   108  H    0.040182
   109  H    0.039662
   110  H    0.042013
   111  H    0.041787
   112  H    0.045633
   113  H    0.060937
   114  H    0.046849
   115  H    0.060332
   116  H    0.104255
   117  H    0.096238
   118  H    0.049449
   119  H    0.038143
   120  H    0.047929
   121  H    0.060477
   122  H    0.047332
   123  H    0.037962
   124  H    0.043834
   125  H    0.044884
   126  H    0.060271
   127  H    0.046539
   128  C   -0.028115
   129  C    0.138023
   130  N   -0.338344
   131  C    0.152583
   132  C   -0.028127
   133  C    0.044652
   134  C   -0.038241
   135  C   -0.028284
   136  C    0.002828
   137  C   -0.078647
   138  C   -0.033259
   139  C    0.049126
   140  C   -0.051464
   141  N   -0.184271
   142  C   -0.055294
   143  C    0.052822
   144  C   -0.041397
   145  C   -0.069671
   146  C    0.010654
   147  C   -0.005813
   148  C   -0.051660
   149  C    0.048911
   150  C   -0.019247
   151  C    0.003494
   152  C   -0.004841
   153  C    0.032804
   154  C   -0.026736
   155  C    0.124672
   156  N   -0.330761
   157  C    0.165545
   158  C   -0.033576
   159  C   -0.040069
   160  C    0.005388
   161  C    0.014551
   162  C    0.037223
   163  C    0.012750
   164  C    0.008936
   165  C   -0.016574
   166  C   -0.022455
   167  C    0.007471
   168  C   -0.003362
   169  C    0.030024
   170  H    0.063439
   171  H    0.107680
   172  H    0.100315
   173  H    0.048125
   174  H    0.045067
   175  H    0.043208
   176  H    0.043702
   177  H    0.047564
   178  H    0.060848
   179  H    0.047380
   180  H    0.060505
   181  H    0.107374
   182  H    0.090075
   183  H    0.052292
   184  H    0.039884
   185  H    0.051466
   186  H    0.063184
   187  H    0.051203
   188  H    0.043450
   189  H    0.045288
   190  H    0.051084
   191  H    0.061728
   192  H    0.049078
 Sum of Mulliken charges =   4.00000

 Dipole moment (field-independent basis, Debye):
    X=              6.3701    Y=              4.6682    Z=              2.1419  Tot=              8.1828
 Quadrupole moment (field-independent basis, Debye-Ang):
   XX=            197.7968   YY=           -477.7528   ZZ=           -509.9544
   XY=             54.3548   XZ=            -18.8865   YZ=             26.1407

 Normal termination of Gaussian 16 at Sat Jun  3 03:15:47 2023.
